LAMMPS data file via write_data, version 29 Oct 2020, timestep = 47

4200 atoms
6 atom types

0.0 23.732205 xlo xhi
0.0 36.541356 ylo yhi
0.0 52.21865 zlo zhi

Masses

1 55.845
2 6.94
3 15.9994
4 30.973761998
5 54.938044
6 24.305

Atoms # full

151 1 5 1.2 0.18492739329265306 4.579345277675255 2.3289640536727387 0 0 0
181 1 5 1.2 4.9210104320868355 4.556754100967625 2.334505587419944 0 0 0
451 1 5 1.2 2.5628650927390675 1.5188024873183348 2.904362650767568 0 0 0
481 1 5 1.2 7.29937303324693 1.5067931710995182 2.906837858929358 0 0 0
601 1 2 0.6 0.015695272113668165 0.029701774736850445 5.224385739710306 0 0 0
631 1 2 0.6 4.752733258307664 0.00132216490914082 5.248333667521567 0 0 0
636 1 2 0.6 4.741429230950847 6.0888612658978305 5.237017109862578 0 0 0
931 1 2 0.6 7.133252060548782 3.027525910410216 0.0024591964461967994 0 0 0
1051 1 2 0.6 0.007250017092411368 3.0378418693535494 5.228928419709436 0 0 0
1081 1 2 0.6 4.753042950609837 3.0338743809554924 5.263232279244609 0 0 0
1201 1 3 -1.2 3.4800038585102055 1.515641581847117 6.246264813477392 0 0 0
1501 1 3 -1.2 3.66819506778759 1.5071559469484506 0.958990154523788 0 0 0
1651 1 3 -1.2 1.2947584196260868 4.54924102433221 4.275887319031625 0 0 0
1681 1 3 -1.2 6.043060624288192 4.562033103328653 4.271321596612739 0 0 0
1951 1 3 -1.2 3.3256139146314703 4.550026544961842 5.72824240998985 0 0 0
2101 1 3 -1.2 1.4472977638879896 1.5164363503945082 4.797213042604515 0 0 0
2131 1 3 -1.2 6.175007180530975 1.504751155913652 4.7923605077199065 0 0 0
2251 1 3 -1.2 3.7669004743445025 4.563591229444309 0.4608800589782656 0 0 0
2401 1 3 -1.2 1.390491862033386 0.29680442885684355 6.905290969781959 0 0 0
2406 1 3 -1.2 1.36998067749556 6.351357055608452 6.877790493277201 0 0 0
2431 1 3 -1.2 6.103281159129038 0.2896708839961738 6.906515942465178 0 0 0
2436 1 3 -1.2 6.113208527590872 6.405558581491592 6.862506834455701 0 0 0
2851 1 3 -1.2 1.393366083387777 2.7415341930609722 6.9033870102061075 0 0 0
2881 1 3 -1.2 6.10823571919962 2.7223908536756802 6.909251770258948 0 0 0
3001 1 3 -1.2 1.016644289424402 2.7419832906540846 1.6666738072859038 0 0 0
3031 1 3 -1.2 5.75110528239909 2.7103434762662655 1.6527406879451896 0 0 0
3151 1 3 -1.2 3.3910773688193467 3.3395089846402204 3.6092698600931628 0 0 0
3301 1 3 -1.2 3.379901284102302 5.768952532359009 3.6101222128070867 0 0 0
3451 1 3 -1.2 1.0137808931256265 0.30680058131049326 1.6612172448468638 0 0 0
3456 1 3 -1.2 1.0132095959669343 6.421618329182555 1.6650716192737094 0 0 0
3481 1 3 -1.2 5.742160359055352 0.27024855317990776 1.6422139053139102 0 0 0
3486 1 3 -1.2 5.745806587191396 6.3972821266548285 1.6334763843657525 0 0 0
3601 1 4 3.0 1.97488807923955 1.518155910373429 6.219373783319348 0 0 0
3631 1 4 3.0 6.691649482780383 1.5052781731994451 6.217947615250266 0 0 0
3901 1 4 3.0 0.41421981900485677 1.5267707500139849 0.9871087983412885 0 0 0
3931 1 4 3.0 5.174262842555563 1.4956197229210941 0.9505470368441181 0 0 0
4051 1 4 3.0 2.80138209824192 4.550773836978679 4.30556754476368 0 0 0
4081 1 4 3.0 7.548837721074771 4.563161565558584 4.285747654279485 0 0 0
211 1 5 1.2 9.67449689499424 4.5706589594489655 2.326833505697993 0 0 0
241 1 5 1.2 14.406719968875812 4.567371490118819 2.321452337917274 0 0 0
511 1 1 1.2 12.038292968459164 1.5288435079233058 2.9125774838843377 0 0 0
666 1 2 0.6 9.502018787220733 6.095024154596427 5.226062859220492 0 0 0
691 1 2 0.6 14.226457233968665 0.036511540982302866 5.226124549867322 0 0 0
696 1 2 0.6 14.24269485242885 6.092345883242845 5.231754098795193 0 0 0
1111 1 2 0.6 9.485386595729718 3.050184332726516 5.241009496826408 0 0 0
1141 1 2 0.6 14.23046701340869 3.0543079378522084 5.2277118978339105 0 0 0
1231 1 3 -1.2 8.197618919097064 1.5072075369263458 6.246638549914569 0 0 0
1261 1 3 -1.2 12.921733901979632 1.5316869213099003 6.204151792148781 0 0 0
1531 1 3 -1.2 8.424604662683834 1.5149881906753844 0.9733578084233488 0 0 0
1561 1 3 -1.2 13.145554669522086 1.5146460665696433 1.0019703265081996 0 0 0
1711 1 3 -1.2 10.78389642086635 4.57047093192639 4.262528069795668 0 0 0
1741 1 3 -1.2 15.534764493254672 4.5874280440450885 4.2495642351423655 0 0 0
1981 1 3 -1.2 8.082980851837542 4.559068444659764 5.7040186722635084 0 0 0
2011 1 3 -1.2 12.8283413396902 4.568234200417295 5.6919491718106014 0 0 0
2161 1 3 -1.2 10.892835991974023 1.5246734811952334 4.753050873827542 0 0 0
2191 1 3 -1.2 15.637680700003884 1.5511806985702368 4.760992125701724 0 0 0
2281 1 3 -1.2 8.556710381180132 4.560906290588174 0.44517747808007385 0 0 0
2311 1 3 -1.2 13.259738913672996 4.559459692877304 0.4443433037065931 0 0 0
2461 1 3 -1.2 10.837433010573204 0.30906976415718945 6.873876467063808 0 0 0
2466 1 3 -1.2 10.860539480244222 6.406210554802323 6.877433402477558 0 0 0
2491 1 3 -1.2 15.607058020691513 0.34868382578323354 6.879604192200483 0 0 0
2496 1 3 -1.2 15.602374245894298 6.419708428934249 6.901186528370334 0 0 0
2911 1 3 -1.2 10.834819858313859 2.7401825686833168 6.8742708936285535 0 0 0
2941 1 3 -1.2 15.612320771893588 2.787493828055647 6.86285162019677 0 0 0
3061 1 3 -1.2 10.511913408719968 2.72947221308771 1.65259731175326 0 0 0
3091 1 3 -1.2 15.238416819619776 2.7357555559806275 1.649029686789396 0 0 0
3181 1 3 -1.2 8.12689630487455 3.347206335300086 3.5875854424627467 0 0 0
3211 1 3 -1.2 12.85393650546511 3.3293159072159155 3.58611572993862 0 0 0
3331 1 3 -1.2 8.123052616639113 5.781995850163736 3.588178224092933 0 0 0
3361 1 3 -1.2 12.872101208338751 5.768261089725418 3.5701989322253134 0 0 0
3511 1 3 -1.2 10.508811890569843 0.29655614949989784 1.6487839427852045 0 0 0
3516 1 3 -1.2 10.498255838027802 6.418362232174683 1.6457153214963962 0 0 0
3541 1 3 -1.2 15.242319630268955 0.3016779680498592 1.6539046739759011 0 0 0
3546 1 3 -1.2 15.245849817639236 6.389500155751994 1.6282598173805454 0 0 0
3661 1 4 3.0 11.414936329685407 1.52508619205997 6.176458641571386 0 0 0
3961 1 4 3.0 9.931220960014912 1.5146277605387142 0.9546832925680013 0 0 0
3991 1 4 3.0 14.65023286922129 1.51643884693851 0.9652646723602766 0 0 0
4111 1 4 3.0 12.289336022862763 4.558357436299278 4.275211969510215 0 0 0
606 1 2 0.6 23.730868708768448 6.045601764451054 5.2504285023 -1 0 0
271 1 1 1.2 19.16178338779884 4.565325684294759 2.3249002592835404 0 0 0
541 1 5 1.2 16.79344100019874 1.5357214352020303 2.897824676225127 0 0 0
571 1 6 1.2 21.531650680356464 1.5323866791573142 2.8981068568316704 0 0 0
721 1 2 0.6 18.987577657587405 0.021763110971400348 5.215856211981679 0 0 0
726 1 2 0.6 18.9921204259317 6.090606914820117 5.20693517554338 0 0 0
841 1 2 0.6 16.60994297676995 0.017831039869495146 0.016804964788290248 0 0 0
846 1 2 0.6 16.620861715763365 6.0676127429720275 0.012544446543237293 0 0 0
876 1 2 0.6 21.36468934798521 6.0775955210865495 0.0020815967067255065 0 0 0
1021 1 2 0.6 21.359890141013288 3.0761755711063867 0.0018611009129147502 0 0 0
1171 1 2 0.6 18.990069670505044 3.0677402520223827 5.207388863380155 0 0 0
1291 1 3 -1.2 17.69073904117873 1.5489191257095465 6.175451766325622 0 0 0
1321 1 3 -1.2 22.45389007992506 1.5411133049643688 6.1863773788470375 0 0 0
1591 1 3 -1.2 17.923537282506484 1.5397282967174832 0.9879783392095678 0 0 0
1621 1 3 -1.2 22.641141721183082 1.5293420890551106 1.0438003184454425 0 0 0
1771 1 3 -1.2 20.26007482146413 4.568286870335381 4.222032605493089 0 0 0
2041 1 3 -1.2 17.557591384866566 4.591027080230986 5.699198398681796 0 0 0
2071 1 3 -1.2 22.297725451219183 4.559966754435398 5.664821148143921 0 0 0
2221 1 3 -1.2 20.4289441163811 1.5457671028937081 4.719652343916416 0 0 0
2341 1 3 -1.2 18.05018087434824 4.555873189411794 0.46891936060714595 0 0 0
2371 1 3 -1.2 22.796276458925345 4.576495148081823 0.4429734933762934 0 0 0
2521 1 3 -1.2 20.35711616569455 0.33955387449112556 6.842886052553878 0 0 0
2526 1 3 -1.2 20.36918118049558 6.35609806283273 6.845778139586302 0 0 0
2971 1 3 -1.2 20.364800609030763 2.7729104322754345 6.831259180554738 0 0 0
3121 1 3 -1.2 20.00304991168689 2.776451424012791 1.659839202076128 0 0 0
3241 1 3 -1.2 17.624512679917405 3.3727344301211306 3.5790717432083285 0 0 0
3271 1 3 -1.2 22.338966939584655 3.3268985099781387 3.557160060053918 0 0 0
3391 1 3 -1.2 17.625972584947274 5.799645648236625 3.5765387207022847 0 0 0
3421 1 3 -1.2 22.35539078969514 5.771637221864863 3.552524174987468 0 0 0
3571 1 3 -1.2 20.017422222680167 0.3471953965240011 1.6791615340630401 0 0 0
3576 1 3 -1.2 19.99554604121233 6.353941682595113 1.6593100661492752 0 0 0
3691 1 4 3.0 16.18494059185506 1.5618690329032827 6.175219661336742 0 0 0
3721 1 4 3.0 20.94843529453844 1.5513299526198912 6.144880351366032 0 0 0
4021 1 4 3.0 19.430214207752044 1.5529324137197422 0.9702402595136002 0 0 0
4141 1 4 3.0 17.04085218725676 4.587654862330991 4.274130639582133 0 0 0
4171 1 4 3.0 21.765764939068184 4.554348405014968 4.242869578738115 0 0 0
156 1 1 1.2 0.1824252034139105 10.656996808822198 2.3223323609362625 0 0 0
186 1 5 1.2 4.928628688389496 10.668697832676356 2.3245278527941067 0 0 0
456 1 5 1.2 2.5573443900195096 7.59638133429026 2.9007920628753108 0 0 0
461 1 5 1.2 2.5628058577038884 13.71833171848281 2.906557089020816 0 0 0
486 1 5 1.2 7.3014362674772535 7.623381358761255 2.886034082013563 0 0 0
491 1 1 1.2 7.308001828138698 13.721844014496536 2.8931358181059035 0 0 0
641 1 2 0.6 4.74517285197181 12.167910066496669 5.204347991945964 0 0 0
761 1 2 0.6 2.3678358742476315 12.1957719880741 0.008775726669101407 0 0 0
791 1 2 0.6 7.128059936184801 12.19098907388392 0.02342715072038183 0 0 0
906 1 2 0.6 2.365827676449165 9.171301588489866 0.016047264635143717 0 0 0
936 1 2 0.6 7.118004075092548 9.155235021390727 0.005883200383139003 0 0 0
1056 1 2 0.6 0.002811009023809219 9.108714544101558 5.213314878484346 0 0 0
1086 1 2 0.6 4.736491051681446 9.139571719629808 5.225966115679563 0 0 0
1206 1 3 -1.2 3.441377690718381 7.592897232714801 6.208140369433574 0 0 0
1211 1 3 -1.2 3.433347439574274 13.708955707283785 6.19406961730759 0 0 0
1506 1 3 -1.2 3.665778871057533 7.621607551689984 0.9552038362482541 0 0 0
1511 1 3 -1.2 3.6778824724408805 13.713050678054135 0.9854779459620505 0 0 0
1656 1 3 -1.2 1.2803751655242963 10.64746333347108 4.22271107873261 0 0 0
1686 1 3 -1.2 6.052349124304954 10.676360239424307 4.239011271201459 0 0 0
1956 1 3 -1.2 3.306814813706746 10.644524611237017 5.682250193517719 0 0 0
2106 1 3 -1.2 1.4050881775506605 7.5965228827575 4.772388847366128 0 0 0
2111 1 3 -1.2 1.3966634825523638 13.701570686442595 4.762370298899867 0 0 0
2136 1 3 -1.2 6.153176217027276 7.625992882314635 4.746579796981314 0 0 0
2141 1 3 -1.2 6.15709626734615 13.711624328052714 4.716472206904875 0 0 0
2256 1 3 -1.2 3.776937031622448 10.688026968490675 0.45813779379444036 0 0 0
2411 1 3 -1.2 1.3538343973469456 12.484078357503364 6.8789823840834625 0 0 0
2441 1 3 -1.2 6.109972384230517 12.495327902113154 6.837649420864884 0 0 0
2856 1 3 -1.2 1.3512226252650872 8.790695345332317 6.896720061707288 0 0 0
2886 1 3 -1.2 6.110623029187076 8.840551304708482 6.860405308350714 0 0 0
3006 1 3 -1.2 0.9930095138100694 8.860385144549909 1.6475407478980642 0 0 0
3036 1 3 -1.2 5.752801139161555 8.833814944720826 1.6295282635388342 0 0 0
3156 1 3 -1.2 3.377790456399423 9.436798772910022 3.5685143561725776 0 0 0
3306 1 3 -1.2 3.375313192710517 11.871669678209194 3.578778778391076 0 0 0
3461 1 3 -1.2 0.9933202658895586 12.458722402934747 1.6634595441853794 0 0 0
3491 1 3 -1.2 5.771239687125862 12.499077457336986 1.6351841128824143 0 0 0
3606 1 4 3.0 1.935066193670161 7.581060539869681 6.192790890169439 0 0 0
3611 1 4 3.0 1.9268391079523843 13.702227397474433 6.182155085480307 0 0 0
3636 1 4 3.0 6.6881456809887885 7.623794088934355 6.1643820350542855 0 0 0
3641 1 4 3.0 6.68388740998578 13.712284256280409 6.1375363282655275 0 0 0
3906 1 4 3.0 0.4170077088989342 7.630811911834316 0.9696451836282223 0 0 0
3911 1 4 3.0 0.411254008770433 13.684529075121942 0.9846925389768517 0 0 0
3936 1 4 3.0 5.172157582644508 7.616358375436577 0.936428019975094 0 0 0
3941 1 4 3.0 5.183954184125745 13.713596778662348 0.942696200110427 0 0 0
4056 1 4 3.0 2.7857758482558155 10.650567548030034 4.25831532021149 0 0 0
4086 1 4 3.0 7.558912016134902 10.686769704715294 4.247508998871557 0 0 0
216 1 1 1.2 9.681240728951572 10.660418503255352 2.309530144868745 0 0 0
246 1 5 1.2 14.435035977742793 10.65751026713913 2.329825314830873 0 0 0
516 1 5 1.2 12.055059206651244 7.615781244074929 2.886469924854907 0 0 0
521 1 1 1.2 12.05385943649315 13.709626221786776 2.899232361260916 0 0 0
671 1 2 0.6 9.495942028031315 12.201482789933959 5.18497295868417 0 0 0
701 1 2 0.6 14.232533993898393 12.189493184198232 5.217918946779236 0 0 0
821 1 2 0.6 11.861996990450262 12.171853464751068 0.012210116735617806 0 0 0
1116 1 2 0.6 9.498530026200656 9.146171384073133 5.211055119232797 0 0 0
1146 1 2 0.6 14.229756714581386 9.168675597656978 5.253429910558757 0 0 0
1236 1 3 -1.2 8.194316080007836 7.620941621705304 6.1798579102956195 0 0 0
1241 1 3 -1.2 8.189833936191862 13.71612729534052 6.1660049374705475 0 0 0
1266 1 3 -1.2 12.954567994335617 7.625446891858855 6.23266400490522 0 0 0
1271 1 3 -1.2 12.943480245044253 13.693447952090084 6.193730517658138 0 0 0
1536 1 3 -1.2 8.413220613597113 7.6226954801356825 0.9578537084285643 0 0 0
1541 1 3 -1.2 8.417082602169742 13.707676621075564 1.0096132713786774 0 0 0
1566 1 3 -1.2 13.167524877282052 7.61386903412647 0.9497377209156365 0 0 0
1571 1 3 -1.2 13.1540021818653 13.713478669547472 0.9958118773917273 0 0 0
1716 1 3 -1.2 10.774553890040876 10.672097956573763 4.20118294986665 0 0 0
1746 1 3 -1.2 15.530749365834698 10.665234748371283 4.2724807733411305 0 0 0
1986 1 3 -1.2 8.094019204741617 10.674790492533045 5.666345782238296 0 0 0
2016 1 3 -1.2 12.798749103918315 10.667944006314174 5.664664334036519 0 0 0
2166 1 3 -1.2 10.933336032383762 7.626147334387821 4.765225401492352 0 0 0
2171 1 3 -1.2 10.918025216920256 13.699736992383672 4.731691670625717 0 0 0
2196 1 3 -1.2 15.631188555392843 7.626737580737522 4.7828979336433415 0 0 0
2201 1 3 -1.2 15.646619551120374 13.696978467745685 4.7813203733981835 0 0 0
2286 1 3 -1.2 8.546118355581063 10.678267702370029 0.48405601838768847 0 0 0
2316 1 3 -1.2 13.280248065392477 10.661682825178177 0.46648627384824 0 0 0
2471 1 3 -1.2 10.84477531955188 12.492365598582259 6.851234588839774 0 0 0
2501 1 3 -1.2 15.635458817660238 12.464703378639284 6.889933480137663 0 0 0
2916 1 3 -1.2 10.852077207948518 8.83844195229016 6.877350264891351 0 0 0
2946 1 3 -1.2 15.621509451146823 8.863765388387591 6.892590601432252 0 0 0
3066 1 3 -1.2 10.489618451845569 8.857121480214737 1.631636096957202 0 0 0
3096 1 3 -1.2 15.256720833653949 8.82143431398545 1.6312514282080328 0 0 0
3186 1 3 -1.2 8.138497390755758 9.475557189923679 3.542541689346271 0 0 0
3216 1 3 -1.2 12.873521101777165 9.467420055242112 3.5485887556272697 0 0 0
3336 1 3 -1.2 8.12587238021887 11.915065132916526 3.5603299306449467 0 0 0
3366 1 3 -1.2 12.862640367830954 11.907384386058537 3.562766389045886 0 0 0
3521 1 3 -1.2 10.500828522555896 12.462851914342648 1.6488310363429 0 0 0
3551 1 3 -1.2 15.25029033490487 12.499521454660707 1.650389568905839 0 0 0
3666 1 4 3.0 11.448672496573531 7.62507299755331 6.191229999187116 0 0 0
3671 1 4 3.0 11.437679548569728 13.703389125552976 6.156293966425768 0 0 0
3966 1 4 3.0 9.918951385059811 7.631107813013195 0.9429381391473276 0 0 0
3971 1 4 3.0 9.922995705575833 13.692508813231319 0.9735115177596071 0 0 0
3996 1 4 3.0 14.67347424390429 7.608287206967118 0.9307148946638698 0 0 0
4001 1 4 3.0 14.659817577805866 13.717636320143924 0.965673295222365 0 0 0
4116 1 4 3.0 12.279900114769035 10.680246028006753 4.239508854336378 0 0 0
611 1 2 0.6 23.728139550360343 12.17099933184866 5.223057065012256 -1 0 0
276 1 5 1.2 19.163411493039774 10.64250294506015 2.3501288671500875 0 0 0
546 1 5 1.2 16.781347471732456 7.627025413580221 2.9048149990855614 0 0 0
551 1 5 1.2 16.796051067978716 13.706733915784751 2.9110890573660964 0 0 0
576 1 1 1.2 21.554761525964473 7.599196829492636 2.9064199783502422 0 0 0
581 1 1 1.2 21.54976924503378 13.687628385134369 2.9179427295898615 0 0 0
731 1 2 0.6 18.99442032339764 12.184121396527168 5.228147896995347 0 0 0
851 1 2 0.6 16.61216622112285 12.19119240386549 0.007318856790980307 0 0 0
881 1 2 0.6 21.357755514713688 12.174599238993196 0.032770072512641184 0 0 0
1026 1 2 0.6 21.35645646698544 9.127436001608883 0.029274635737207465 0 0 0
1176 1 2 0.6 18.99677301849856 9.109498968909161 5.218737584470913 0 0 0
1296 1 3 -1.2 17.68663748869803 7.6189791506645665 6.185511314481243 0 0 0
1301 1 3 -1.2 17.703033870014703 13.706276126570216 6.188158539205358 0 0 0
1326 1 3 -1.2 22.462102538334847 7.5873979447879005 6.209761598704058 0 0 0
1331 1 3 -1.2 22.45016258723212 13.690960479178148 6.216323706237036 0 0 0
1596 1 3 -1.2 17.916009986772718 7.591757699460641 0.9841245797997397 0 0 0
1601 1 3 -1.2 17.918191155014803 13.705643049955771 0.9869122083555162 0 0 0
1626 1 3 -1.2 22.643555637538263 7.614577448351519 1.0070412767284174 0 0 0
1631 1 3 -1.2 22.63852783499298 13.693510261335577 1.0217994784866686 0 0 0
1776 1 3 -1.2 20.289679622047462 10.637813720360779 4.2598851963921 0 0 0
2046 1 3 -1.2 17.550330706660553 10.658436693208087 5.746015182861036 0 0 0
2076 1 3 -1.2 22.337382967325382 10.63884952778297 5.671675874819823 0 0 0
2226 1 3 -1.2 20.44232337236084 7.588143695123201 4.7399826406513474 0 0 0
2231 1 3 -1.2 20.431618357515937 13.690471247441783 4.745168746105765 0 0 0
2346 1 3 -1.2 18.02321390758081 10.64808507953247 0.48421939847401524 0 0 0
2376 1 3 -1.2 22.77911826878798 10.659478509868764 0.49326261046042214 0 0 0
2531 1 3 -1.2 20.355253513348845 12.4766096858796 6.858706103344153 0 0 0
2976 1 3 -1.2 20.36524068541528 8.791081440147403 6.858179661767343 0 0 0
3126 1 3 -1.2 19.999360590233156 8.791557586803306 1.677518689040104 0 0 0
3246 1 3 -1.2 17.618046743450293 9.44639516100697 3.6220409676131244 0 0 0
3276 1 3 -1.2 22.36774835156011 9.41970962057957 3.556801239524759 0 0 0
3396 1 3 -1.2 17.626018577084956 11.875768332034394 3.62615451799305 0 0 0
3426 1 3 -1.2 22.362958776545074 11.862956245811452 3.5594929367178363 0 0 0
3581 1 3 -1.2 19.998872513572817 12.48771723218822 1.6691217326608192 0 0 0
3696 1 4 3.0 16.17980025524466 7.634829805279299 6.197421156011817 0 0 0
3701 1 4 3.0 16.197220138137613 13.693049299299567 6.194968174256548 0 0 0
3726 1 4 3.0 20.957594176915 7.577762408422596 6.165958067268841 0 0 0
3731 1 4 3.0 20.94519110724677 13.693383091659513 6.171636729539314 0 0 0
4026 1 4 3.0 19.422233422699055 7.578843637250722 0.9731756292533235 0 0 0
4031 1 4 3.0 19.42484604089498 13.706118962825162 0.9726755383342178 0 0 0
4146 1 4 3.0 17.036449141985226 10.661936509034819 4.319931123976706 0 0 0
4176 1 4 3.0 21.796067345133412 10.639371739495214 4.255071296696165 0 0 0
161 1 5 1.2 0.18027226229449386 16.747080324036375 2.340666987293674 0 0 0
191 1 5 1.2 4.923685105966763 16.756666494703985 2.334897248846553 0 0 0
466 1 1 1.2 2.563120098207555 19.804333444785247 2.9132330528413015 0 0 0
496 1 1 1.2 7.302022034741658 19.79023085276064 2.917676819445263 0 0 0
616 1 2 0.6 0.007764951618226249 18.286691964776406 5.221816995896641 0 0 0
646 1 2 0.6 4.750839215920015 18.279743846336224 5.25470428623376 0 0 0
766 1 2 0.6 2.383144287942983 18.255658325166152 0.02926390064395627 0 0 0
796 1 2 0.6 7.126170302042112 18.25610777265038 0.027983580029209282 0 0 0
911 1 2 0.6 2.3679897172583644 15.199380389475188 0.005861390938555677 0 0 0
916 1 2 0.6 2.389647077537501 21.315941576331763 0.012630176774561715 0 0 0
941 1 2 0.6 7.1401397039131 15.227953750784753 0.003951615653692959 0 0 0
1066 1 2 0.6 0.01606361550277639 21.336617411258217 5.220458615465517 0 0 0
1091 1 2 0.6 4.736576793003374 15.249378091930145 5.221099916474527 0 0 0
1096 1 2 0.6 4.754711786736324 21.316548139746423 5.232343763658034 0 0 0
1216 1 3 -1.2 3.4745273714118516 19.812330477318667 6.254912469729549 0 0 0
1516 1 3 -1.2 3.6685802616753995 19.796740911779928 1.0172819324779798 0 0 0
1661 1 3 -1.2 1.2904829106985038 16.769309367809168 4.265877360184964 0 0 0
1691 1 3 -1.2 6.0335766758907186 16.76745268269218 4.258420019474256 0 0 0
1961 1 3 -1.2 3.3291136888658444 16.778985688545944 5.698118355031588 0 0 0
2116 1 3 -1.2 1.4618426659546493 19.814114102887537 4.766245530275453 0 0 0
2146 1 3 -1.2 6.183696524159927 19.799858813146894 4.773354791890844 0 0 0
2261 1 3 -1.2 3.7818746753609416 16.741823617084783 0.47001205648738925 0 0 0
2416 1 3 -1.2 1.3645004751865581 18.612710195332046 6.881321189982779 0 0 0
2446 1 3 -1.2 6.093872912100308 18.593198460922203 6.897554400733306 0 0 0
2861 1 3 -1.2 1.3490024205762219 14.917901640952516 6.880281043893715 0 0 0
2866 1 3 -1.2 1.3832068753910483 21.053542924880947 6.866083373599739 0 0 0
2891 1 3 -1.2 6.103781422587066 14.92881672671625 6.833550919786552 0 0 0
2896 1 3 -1.2 6.088726047895355 21.01625608132231 6.891083025522959 0 0 0
3011 1 3 -1.2 1.0020925417596684 14.899112702839563 1.6747825301132697 0 0 0
3016 1 3 -1.2 1.0304685378538705 21.01679831009587 1.6572760336387038 0 0 0
3041 1 3 -1.2 5.771546097846901 14.927956137734746 1.6363522308007599 0 0 0
3046 1 3 -1.2 5.751050187720038 21.03834593496568 1.6693602412356152 0 0 0
3161 1 3 -1.2 3.378084793277017 15.567353556084262 3.5840575206448864 0 0 0
3166 1 3 -1.2 3.3899208268164003 21.594738628276833 3.5793824504217397 0 0 0
3311 1 3 -1.2 3.3687732393246 18.005676432070647 3.5871624697507487 0 0 0
3466 1 3 -1.2 1.0197959427211698 18.585482071428586 1.6600346312013912 0 0 0
3496 1 3 -1.2 5.765989369325875 18.600839500104282 1.6829095409328627 0 0 0
3616 1 4 3.0 1.9693953154788895 19.82441427352149 6.196397597266082 0 0 0
3646 1 4 3.0 6.687154340884257 19.804229205527378 6.2044691936387295 0 0 0
3916 1 4 3.0 0.44729096222303943 19.80310979120561 0.9603073784769501 0 0 0
3946 1 4 3.0 5.174749887441467 19.811955845382162 0.9877373179647597 0 0 0
4061 1 4 3.0 2.795997986172423 16.783628335282142 4.279651617457293 0 0 0
4091 1 4 3.0 7.539235933427473 16.765907467958986 4.263495028363661 0 0 0
221 1 5 1.2 9.677614648296823 16.741302933077993 2.328878676115979 0 0 0
251 1 5 1.2 14.419281840233332 16.771781066002077 2.325127465952431 0 0 0
526 1 5 1.2 12.039386575354232 19.780797668797824 2.893998498376821 0 0 0
676 1 2 0.6 9.48491194948525 18.277815580816316 5.245435352925864 0 0 0
706 1 2 0.6 14.234693405130514 18.262139682694524 5.2189983854959445 0 0 0
976 1 2 0.6 11.862207094401334 21.33031394664963 0.009762239618599008 0 0 0
1121 1 2 0.6 9.48932084763473 15.236193529827416 5.216311231943739 0 0 0
1126 1 2 0.6 9.482665677006498 21.32820005863273 5.2311587473670285 0 0 0
1151 1 2 0.6 14.24560151541706 15.215227838140356 5.227474921849015 0 0 0
1156 1 2 0.6 14.246166753485566 21.30431293199451 5.1913059912136665 0 0 0
1246 1 3 -1.2 8.192948083998855 19.80321664466136 6.245803778937386 0 0 0
1276 1 3 -1.2 12.932586256284381 19.791269240766866 6.185503224009989 0 0 0
1546 1 3 -1.2 8.39991847480407 19.78704411421337 0.9967309631502801 0 0 0
1576 1 3 -1.2 13.16530592866817 19.81046167344934 0.9699390802669166 0 0 0
1721 1 3 -1.2 10.783691954143011 16.73913432609636 4.259746691695116 0 0 0
1751 1 3 -1.2 15.526742656100788 16.750504866666173 4.271522797694442 0 0 0
1991 1 3 -1.2 8.078698440887969 16.772591946737474 5.6802676304861235 0 0 0
2021 1 3 -1.2 12.825738009010784 16.740690116449354 5.691503212407267 0 0 0
2176 1 3 -1.2 10.886657172094553 19.79754443205978 4.764080020332345 0 0 0
2206 1 3 -1.2 15.65754502422476 19.789230452899563 4.74409937164568 0 0 0
2291 1 3 -1.2 8.581088886013298 16.733282789080757 0.4443964348705179 0 0 0
2321 1 3 -1.2 13.293673248617145 16.76285727478508 0.4391401757468461 0 0 0
2476 1 3 -1.2 10.84389699357926 18.60190932814057 6.888592792423534 0 0 0
2506 1 3 -1.2 15.615633817557466 18.56897249971356 6.860513690974854 0 0 0
2921 1 3 -1.2 10.854192171381394 14.923162915369584 6.8433359459484455 0 0 0
2926 1 3 -1.2 10.860191239629872 21.03909058148326 6.866064098705735 0 0 0
2951 1 3 -1.2 15.622057936471709 14.913845713893338 6.890429954516794 0 0 0
2956 1 3 -1.2 15.614602173111363 21.011985778419785 6.853199152317233 0 0 0
3071 1 3 -1.2 10.519483869140867 14.897959161888407 1.673713989452092 0 0 0
3076 1 3 -1.2 10.490691518770697 21.014949262480975 1.6408303364416776 0 0 0
3101 1 3 -1.2 15.245902444755227 14.933880185221195 1.656237107901909 0 0 0
3106 1 3 -1.2 15.239416986616563 21.055348404764498 1.6453807291258935 0 0 0
3191 1 3 -1.2 8.10600851517564 15.54010622309962 3.570084213516573 0 0 0
3196 1 3 -1.2 8.106644164678418 21.59408978941454 3.5675766972012126 0 0 0
3221 1 3 -1.2 12.86237833520963 15.50447724002053 3.5842794627550556 0 0 0
3226 1 3 -1.2 12.879788927645603 21.61061924157161 3.571669960359441 0 0 0
3341 1 3 -1.2 8.116166585909324 17.983079588388776 3.565135227695897 0 0 0
3371 1 3 -1.2 12.868425805109016 17.941808878535987 3.5705169712759908 0 0 0
3526 1 3 -1.2 10.501711981799122 18.579863126880877 1.649157233502953 0 0 0
3556 1 3 -1.2 15.256009351696681 18.619488388412556 1.6739959494533239 0 0 0
3676 1 4 3.0 11.426073485620348 19.810058249526325 6.180970521503181 0 0 0
3976 1 4 3.0 9.905414152585388 19.792407943402118 0.9600114122766282 0 0 0
4006 1 4 3.0 14.67148915200535 19.82556453192547 0.9639700630880508 0 0 0
4121 1 4 3.0 12.28995490951824 16.72871438488471 4.273900056295982 0 0 0
1061 1 2 0.6 23.726319819768317 15.225411331431472 5.245156183889038 -1 0 0
281 1 5 1.2 19.157964727255006 16.76098266164359 2.339052782287499 0 0 0
556 1 1 1.2 16.79358251825816 19.777922498055492 2.9066355361686464 0 0 0
586 1 5 1.2 21.547863479051053 19.786150019034466 2.8926179127506355 0 0 0
736 1 2 0.6 18.98531192489872 18.290906831157198 5.225792058729885 0 0 0
1006 1 2 0.6 16.606690476902244 21.33776508969819 0.016258751290404223 0 0 0
1031 1 2 0.6 21.35599825011891 15.234717293670446 0.027110236365993037 0 0 0
1036 1 2 0.6 21.361830454067434 21.338515997538995 0.006797634551823308 0 0 0
1181 1 2 0.6 18.982192762887326 15.220804355151794 5.233842137272106 0 0 0
1186 1 2 0.6 18.978740698959758 21.30880535375978 5.201519828002117 0 0 0
1306 1 3 -1.2 17.696628813317723 19.79062284811111 6.182801650594177 0 0 0
1336 1 3 -1.2 22.441906578843188 19.80689551410077 6.176949501230128 0 0 0
1606 1 3 -1.2 17.893099264809678 19.808649299064882 1.0057860916813808 0 0 0
1636 1 3 -1.2 22.672489984166834 19.80678787129615 0.9744503068996216 0 0 0
1781 1 3 -1.2 20.276670571254638 16.747237382641185 4.272084927182609 0 0 0
2051 1 3 -1.2 17.558054380935022 16.75922399915693 5.718211002887029 0 0 0
2081 1 3 -1.2 22.321817509737812 16.739004907857588 5.698475160246496 0 0 0
2236 1 3 -1.2 20.395752380941236 19.807486530369488 4.7519690360058515 0 0 0
2351 1 3 -1.2 18.010546395411158 16.75936464080593 0.4652088180577477 0 0 0
2381 1 3 -1.2 22.768799573012124 16.746215524804462 0.478897639005753 0 0 0
2536 1 3 -1.2 20.35725424034209 18.60937560267604 6.874509877478185 0 0 0
2981 1 3 -1.2 20.356522460269872 14.90963471564293 6.860791871847721 0 0 0
2986 1 3 -1.2 20.36353950362455 21.04791577401679 6.853206239379098 0 0 0
3131 1 3 -1.2 20.00087633580941 14.9238716052051 1.6679305536933866 0 0 0
3136 1 3 -1.2 19.982443968561817 21.046949420334574 1.6515738236471216 0 0 0
3251 1 3 -1.2 17.61859457491678 15.54739011987772 3.600324557186178 0 0 0
3256 1 3 -1.2 17.613759375795823 21.57726632909821 3.559894681419998 0 0 0
3281 1 3 -1.2 22.35116673767359 15.502336199876494 3.5948773602595523 0 0 0
3286 1 3 -1.2 22.369439848974423 21.622356448647892 3.581721382878891 0 0 0
3401 1 3 -1.2 17.603608865797288 17.982990489864047 3.5995394482752356 0 0 0
3431 1 3 -1.2 22.364404518674537 17.94224098665906 3.5780642844485926 0 0 0
3586 1 3 -1.2 19.986326423966208 18.606824263436934 1.6664051082471587 0 0 0
3706 1 4 3.0 16.19125757462484 19.789293288138172 6.1638887146685 0 0 0
3736 1 4 3.0 20.9358624768547 19.82126433776983 6.167958363749174 0 0 0
4036 1 4 3.0 19.39852866409712 19.821739844102876 0.9732014198393704 0 0 0
4151 1 4 3.0 17.032489900750853 16.76087988989633 4.29619450108048 0 0 0
4181 1 4 3.0 21.78280096561681 16.73060535048197 4.281741414047863 0 0 0
166 1 5 1.2 0.18876360083442809 22.852671521774987 2.330010612453934 0 0 0
171 1 1 1.2 0.18733784031466053 28.917334626612195 2.3154074297235283 0 0 0
196 1 1 1.2 4.925951404597286 22.84156955033071 2.308479672985878 0 0 0
201 1 5 1.2 4.935379406484307 28.928162611289906 2.316062482945307 0 0 0
471 1 5 1.2 2.55888663013719 25.868066261797555 2.878698489465847 0 0 0
501 1 5 1.2 7.302149761274428 25.88937519562666 2.8894191486423155 0 0 0
621 1 2 0.6 0.004836274326248542 24.344154313060876 5.226735287432631 0 0 0
651 1 2 0.6 4.755876938710454 24.381936505833448 5.209910018792619 0 0 0
1071 1 2 0.6 0.002162362063759154 27.37947027711781 5.21237605840739 0 0 0
1101 1 2 0.6 4.757482619436638 27.423681317153004 5.21541993148812 0 0 0
1221 1 3 -1.2 3.4647348782072287 25.87757606359748 6.180712900795512 0 0 0
1521 1 3 -1.2 3.6669624615331977 25.877154064433746 0.9465428820731904 0 0 0
1666 1 3 -1.2 1.3114239918091442 22.833085519231233 4.249840793481811 0 0 0
1671 1 3 -1.2 1.2864078113017599 28.924478200997672 4.219807520400137 0 0 0
1696 1 3 -1.2 6.020888581062483 22.835352014432694 4.221094347485925 0 0 0
1701 1 3 -1.2 6.051440480234253 28.927681270467907 4.237652612263435 0 0 0
1966 1 3 -1.2 3.3443237496380105 22.832939501608028 5.68904627592661 0 0 0
1971 1 3 -1.2 3.3150657437934212 28.922046400074812 5.675938802185802 0 0 0
2121 1 3 -1.2 1.423622888745991 25.86865202347911 4.74845563466323 0 0 0
2151 1 3 -1.2 6.182937247399154 25.905495745984652 4.766913622122044 0 0 0
2266 1 3 -1.2 3.8125181842669997 22.82493966869308 0.45861964990080345 0 0 0
2271 1 3 -1.2 3.8103500665141508 28.93472064391078 0.4390705768577542 0 0 0
2421 1 3 -1.2 1.3903826698132344 24.63886199091777 6.8579104000917 0 0 0
2451 1 3 -1.2 6.115121784549542 24.70809409236567 6.88593163701953 0 0 0
2871 1 3 -1.2 1.3717849938707642 27.075349574709062 6.867021284331568 0 0 0
2901 1 3 -1.2 6.1441719571822775 27.148991623380894 6.872441517530044 0 0 0