# LAMMPS data file written by MDSB/DeLi.py
756 atoms
5 atom types

0.0 14.239323 xlo xhi
0.0 18.270678 ylo yhi
0.0 31.33119 zlo zhi

Atoms  #full 

1 1 5 2.0 2.2557318464 4.5676695 7.4988435687
2 1 5 2.0 2.2557318464 4.5676695 17.9425735677
3 1 5 2.0 2.2557318464 4.5676695 28.3863035666
4 1 5 2.0 2.2557318464 10.6578954994 7.4988435687
5 1 5 2.0 2.2557318464 10.6578954994 17.9425735677
6 1 5 2.0 2.2557318464 10.6578954994 28.3863035666
7 1 5 2.0 2.2557318464 16.7481215006 7.4988435687
8 1 5 2.0 2.2557318464 16.7481215006 17.9425735677
9 1 5 2.0 2.2557318464 16.7481215006 28.3863035666
10 1 1 2.0 7.0021728459 4.5676695 7.4988435687
11 1 1 2.0 7.0021728459 4.5676695 17.9425735677
12 1 5 2.0 7.0021728459 4.5676695 28.3863035666
13 1 1 2.0 7.0021728459 10.6578954994 7.4988435687
14 1 1 2.0 7.0021728459 10.6578954994 17.9425735677
15 1 5 2.0 7.0021728459 10.6578954994 28.3863035666
16 1 1 2.0 7.0021728459 16.7481215006 7.4988435687
17 1 5 2.0 7.0021728459 16.7481215006 17.9425735677
18 1 5 2.0 7.0021728459 16.7481215006 28.3863035666
19 1 1 2.0 11.7486138455 4.5676695 7.4988435687
20 1 5 2.0 11.7486138455 4.5676695 17.9425735677
21 1 5 2.0 11.7486138455 4.5676695 28.3863035666
22 1 1 2.0 11.7486138455 10.6578954994 7.4988435687
23 1 5 2.0 11.7486138455 10.6578954994 17.9425735677
24 1 1 2.0 11.7486138455 10.6578954994 28.3863035666
25 1 1 2.0 11.7486138455 16.7481215006 7.4988435687
26 1 5 2.0 11.7486138455 16.7481215006 17.9425735677
27 1 5 2.0 11.7486138455 16.7481215006 28.3863035666
28 1 1 2.0 0.1174886541 4.5676695 2.2769785677
29 1 1 2.0 0.1174886541 4.5676695 12.7207085666
30 1 5 2.0 0.1174886541 4.5676695 23.1644385687
31 1 5 2.0 0.1174886541 10.6578954994 2.2769785677
32 1 1 2.0 0.1174886541 10.6578954994 12.7207085666
33 1 1 2.0 0.1174886541 10.6578954994 23.1644385687
34 1 5 2.0 0.1174886541 16.7481215006 2.2769785677
35 1 5 2.0 0.1174886541 16.7481215006 12.7207085666
36 1 5 2.0 0.1174886541 16.7481215006 23.1644385687
37 1 5 2.0 4.8639296536 4.5676695 2.2769785677
38 1 5 2.0 4.8639296536 4.5676695 12.7207085666
39 1 5 2.0 4.8639296536 4.5676695 23.1644385687
40 1 1 2.0 4.8639296536 10.6578954994 2.2769785677
41 1 5 2.0 4.8639296536 10.6578954994 12.7207085666
42 1 5 2.0 4.8639296536 10.6578954994 23.1644385687
43 1 5 2.0 4.8639296536 16.7481215006 2.2769785677
44 1 5 2.0 4.8639296536 16.7481215006 12.7207085666
45 1 5 2.0 4.8639296536 16.7481215006 23.1644385687
46 1 1 2.0 9.6103706545 4.5676695 2.2769785677
47 1 5 2.0 9.6103706545 4.5676695 12.7207085666
48 1 5 2.0 9.6103706545 4.5676695 23.1644385687
49 1 5 2.0 9.6103706545 10.6578954994 2.2769785677
50 1 1 2.0 9.6103706545 10.6578954994 12.7207085666
51 1 5 2.0 9.6103706545 10.6578954994 23.1644385687
52 1 5 2.0 9.6103706545 16.7481215006 2.2769785677
53 1 5 2.0 9.6103706545 16.7481215006 12.7207085666
54 1 5 2.0 9.6103706545 16.7481215006 23.1644385687
55 1 1 2.0 4.6289523455 1.5225564994 8.1667514313
56 1 5 2.0 4.6289523455 1.5225564994 18.6104814334
57 1 5 2.0 4.6289523455 1.5225564994 29.0542114323
58 1 5 2.0 4.6289523455 7.6127825006 8.1667514313
59 1 5 2.0 4.6289523455 7.6127825006 18.6104814334
60 1 5 2.0 4.6289523455 7.6127825006 29.0542114323
61 1 1 2.0 4.6289523455 13.7030085 8.1667514313
62 1 5 2.0 4.6289523455 13.7030085 18.6104814334
63 1 5 2.0 4.6289523455 13.7030085 29.0542114323
64 1 5 2.0 9.3753933464 1.5225564994 8.1667514313
65 1 5 2.0 9.3753933464 1.5225564994 18.6104814334
66 1 5 2.0 9.3753933464 1.5225564994 29.0542114323
67 1 5 2.0 9.3753933464 7.6127825006 8.1667514313
68 1 5 2.0 9.3753933464 7.6127825006 18.6104814334
69 1 1 2.0 9.3753933464 7.6127825006 29.0542114323
70 1 5 2.0 9.3753933464 13.7030085 8.1667514313
71 1 5 2.0 9.3753933464 13.7030085 18.6104814334
72 1 5 2.0 9.3753933464 13.7030085 29.0542114323
73 1 5 2.0 14.1218343459 1.5225564994 8.1667514313
74 1 1 2.0 14.1218343459 1.5225564994 18.6104814334
75 1 1 2.0 14.1218343459 1.5225564994 29.0542114323
76 1 5 2.0 14.1218343459 7.6127825006 8.1667514313
77 1 5 2.0 14.1218343459 7.6127825006 18.6104814334
78 1 5 2.0 14.1218343459 7.6127825006 29.0542114323
79 1 5 2.0 14.1218343459 13.7030085 8.1667514313
80 1 5 2.0 14.1218343459 13.7030085 18.6104814334
81 1 5 2.0 14.1218343459 13.7030085 29.0542114323
82 1 5 2.0 2.4907091545 1.5225564994 2.9448864334
83 1 1 2.0 2.4907091545 1.5225564994 13.3886164323
84 1 5 2.0 2.4907091545 1.5225564994 23.8323464313
85 1 1 2.0 2.4907091545 7.6127825006 2.9448864334
86 1 1 2.0 2.4907091545 7.6127825006 13.3886164323
87 1 1 2.0 2.4907091545 7.6127825006 23.8323464313
88 1 5 2.0 2.4907091545 13.7030085 2.9448864334
89 1 1 2.0 2.4907091545 13.7030085 13.3886164323
90 1 5 2.0 2.4907091545 13.7030085 23.8323464313
91 1 1 2.0 7.2371501541 1.5225564994 2.9448864334
92 1 5 2.0 7.2371501541 1.5225564994 13.3886164323
93 1 5 2.0 7.2371501541 1.5225564994 23.8323464313
94 1 1 2.0 7.2371501541 7.6127825006 2.9448864334
95 1 1 2.0 7.2371501541 7.6127825006 13.3886164323
96 1 5 2.0 7.2371501541 7.6127825006 23.8323464313
97 1 1 2.0 7.2371501541 13.7030085 2.9448864334
98 1 5 2.0 7.2371501541 13.7030085 13.3886164323
99 1 5 2.0 7.2371501541 13.7030085 23.8323464313
100 1 5 2.0 11.9835911536 1.5225564994 2.9448864334
101 1 5 2.0 11.9835911536 1.5225564994 13.3886164323
102 1 5 2.0 11.9835911536 1.5225564994 23.8323464313
103 1 5 2.0 11.9835911536 7.6127825006 2.9448864334
104 1 5 2.0 11.9835911536 7.6127825006 13.3886164323
105 1 5 2.0 11.9835911536 7.6127825006 23.8323464313
106 1 1 2.0 11.9835911536 13.7030085 2.9448864334
107 1 1 2.0 11.9835911536 13.7030085 13.3886164323
108 1 5 2.0 11.9835911536 13.7030085 23.8323464313
109 1 2 1.0 0.0 0.0 5.221865001
110 1 2 1.0 0.0 0.0 15.665595
111 1 2 1.0 0.0 0.0 26.109324999
112 1 2 1.0 0.0 6.0902259994 5.221865001
113 1 2 1.0 0.0 6.0902259994 15.665595
114 1 2 1.0 0.0 6.0902259994 26.109324999
115 1 2 1.0 0.0 12.1804520006 5.221865001
116 1 2 1.0 0.0 12.1804520006 15.665595
117 1 2 1.0 0.0 12.1804520006 26.109324999
118 1 2 1.0 4.7464409995 0.0 5.221865001
119 1 2 1.0 4.7464409995 0.0 15.665595
120 1 2 1.0 4.7464409995 0.0 26.109324999
121 1 2 1.0 4.7464409995 6.0902259994 5.221865001
122 1 2 1.0 4.7464409995 6.0902259994 15.665595
123 1 2 1.0 4.7464409995 6.0902259994 26.109324999
124 1 2 1.0 4.7464409995 12.1804520006 5.221865001
125 1 2 1.0 4.7464409995 12.1804520006 15.665595
126 1 2 1.0 4.7464409995 12.1804520006 26.109324999
127 1 2 1.0 9.4928820005 0.0 5.221865001
128 1 2 1.0 9.4928820005 0.0 15.665595
129 1 2 1.0 9.4928820005 0.0 26.109324999
130 1 2 1.0 9.4928820005 6.0902259994 5.221865001
131 1 2 1.0 9.4928820005 6.0902259994 15.665595
132 1 2 1.0 9.4928820005 6.0902259994 26.109324999
133 1 2 1.0 9.4928820005 12.1804520006 5.221865001
134 1 2 1.0 9.4928820005 12.1804520006 15.665595
135 1 2 1.0 9.4928820005 12.1804520006 26.109324999
136 1 2 1.0 2.3732205005 0.0 0.0
137 1 2 1.0 2.3732205005 0.0 10.443729999
138 1 2 1.0 2.3732205005 0.0 20.887460001
139 1 2 1.0 2.3732205005 6.0902259994 0.0
140 1 2 1.0 2.3732205005 6.0902259994 10.443729999
141 1 2 1.0 2.3732205005 6.0902259994 20.887460001
142 1 2 1.0 2.3732205005 12.1804520006 0.0
143 1 2 1.0 2.3732205005 12.1804520006 10.443729999
144 1 2 1.0 2.3732205005 12.1804520006 20.887460001
145 1 2 1.0 7.1196615 0.0 0.0
146 1 2 1.0 7.1196615 0.0 10.443729999
147 1 2 1.0 7.1196615 0.0 20.887460001
148 1 2 1.0 7.1196615 6.0902259994 0.0
149 1 2 1.0 7.1196615 6.0902259994 10.443729999
150 1 2 1.0 7.1196615 6.0902259994 20.887460001
151 1 2 1.0 7.1196615 12.1804520006 0.0
152 1 2 1.0 7.1196615 12.1804520006 10.443729999
153 1 2 1.0 7.1196615 12.1804520006 20.887460001
154 1 2 1.0 11.8661024995 0.0 0.0
155 1 2 1.0 11.8661024995 0.0 10.443729999
156 1 2 1.0 11.8661024995 0.0 20.887460001
157 1 2 1.0 11.8661024995 6.0902259994 0.0
158 1 2 1.0 11.8661024995 6.0902259994 10.443729999
159 1 2 1.0 11.8661024995 6.0902259994 20.887460001
160 1 2 1.0 11.8661024995 12.1804520006 0.0
161 1 2 1.0 11.8661024995 12.1804520006 10.443729999
162 1 2 1.0 11.8661024995 12.1804520006 20.887460001
163 1 2 1.0 2.3732205005 3.0451130006 0.0
164 1 2 1.0 2.3732205005 3.0451130006 10.443729999
165 1 2 1.0 2.3732205005 3.0451130006 20.887460001
166 1 2 1.0 2.3732205005 9.135339 0.0
167 1 2 1.0 2.3732205005 9.135339 10.443729999
168 1 2 1.0 2.3732205005 9.135339 20.887460001
169 1 2 1.0 2.3732205005 15.2255649994 0.0
170 1 2 1.0 2.3732205005 15.2255649994 10.443729999
171 1 2 1.0 2.3732205005 15.2255649994 20.887460001
172 1 2 1.0 7.1196615 3.0451130006 0.0
173 1 2 1.0 7.1196615 3.0451130006 10.443729999
174 1 2 1.0 7.1196615 3.0451130006 20.887460001
175 1 2 1.0 7.1196615 9.135339 0.0
176 1 2 1.0 7.1196615 9.135339 10.443729999
177 1 2 1.0 7.1196615 9.135339 20.887460001
178 1 2 1.0 7.1196615 15.2255649994 0.0
179 1 2 1.0 7.1196615 15.2255649994 10.443729999
180 1 2 1.0 7.1196615 15.2255649994 20.887460001
181 1 2 1.0 11.8661024995 3.0451130006 0.0
182 1 2 1.0 11.8661024995 3.0451130006 10.443729999
183 1 2 1.0 11.8661024995 3.0451130006 20.887460001
184 1 2 1.0 11.8661024995 9.135339 0.0
185 1 2 1.0 11.8661024995 9.135339 10.443729999
186 1 2 1.0 11.8661024995 9.135339 20.887460001
187 1 2 1.0 11.8661024995 15.2255649994 0.0
188 1 2 1.0 11.8661024995 15.2255649994 10.443729999
189 1 2 1.0 11.8661024995 15.2255649994 20.887460001
190 1 2 1.0 0.0 3.0451130006 5.221865001
191 1 2 1.0 0.0 3.0451130006 15.665595
192 1 2 1.0 0.0 3.0451130006 26.109324999
193 1 2 1.0 0.0 9.135339 5.221865001
194 1 2 1.0 0.0 9.135339 15.665595
195 1 2 1.0 0.0 9.135339 26.109324999
196 1 2 1.0 0.0 15.2255649994 5.221865001
197 1 2 1.0 0.0 15.2255649994 15.665595
198 1 2 1.0 0.0 15.2255649994 26.109324999
199 1 2 1.0 4.7464409995 3.0451130006 5.221865001
200 1 2 1.0 4.7464409995 3.0451130006 15.665595
201 1 2 1.0 4.7464409995 3.0451130006 26.109324999
202 1 2 1.0 4.7464409995 9.135339 5.221865001
203 1 2 1.0 4.7464409995 9.135339 15.665595
204 1 2 1.0 4.7464409995 9.135339 26.109324999
205 1 2 1.0 4.7464409995 15.2255649994 5.221865001
206 1 2 1.0 4.7464409995 15.2255649994 15.665595
207 1 2 1.0 4.7464409995 15.2255649994 26.109324999
208 1 2 1.0 9.4928820005 3.0451130006 5.221865001
209 1 2 1.0 9.4928820005 3.0451130006 15.665595
210 1 2 1.0 9.4928820005 3.0451130006 26.109324999
211 1 2 1.0 9.4928820005 9.135339 5.221865001
212 1 2 1.0 9.4928820005 9.135339 15.665595
213 1 2 1.0 9.4928820005 9.135339 26.109324999
214 1 2 1.0 9.4928820005 15.2255649994 5.221865001
215 1 2 1.0 9.4928820005 15.2255649994 15.665595
216 1 2 1.0 9.4928820005 15.2255649994 26.109324999
217 1 3 -2.0 3.5212231994 1.5225564994 6.2320086749
218 1 3 -2.0 3.5212231994 1.5225564994 16.6757386739
219 1 3 -2.0 3.5212231994 1.5225564994 27.119468676
220 1 3 -2.0 3.5212231994 7.6127825006 6.2320086749
221 1 3 -2.0 3.5212231994 7.6127825006 16.6757386739
222 1 3 -2.0 3.5212231994 7.6127825006 27.119468676
223 1 3 -2.0 3.5212231994 13.7030085 6.2320086749
224 1 3 -2.0 3.5212231994 13.7030085 16.6757386739
225 1 3 -2.0 3.5212231994 13.7030085 27.119468676
226 1 3 -2.0 8.2676641989 1.5225564994 6.2320086749
227 1 3 -2.0 8.2676641989 1.5225564994 16.6757386739
228 1 3 -2.0 8.2676641989 1.5225564994 27.119468676
229 1 3 -2.0 8.2676641989 7.6127825006 6.2320086749
230 1 3 -2.0 8.2676641989 7.6127825006 16.6757386739
231 1 3 -2.0 8.2676641989 7.6127825006 27.119468676
232 1 3 -2.0 8.2676641989 13.7030085 6.2320086749
233 1 3 -2.0 8.2676641989 13.7030085 16.6757386739
234 1 3 -2.0 8.2676641989 13.7030085 27.119468676
235 1 3 -2.0 13.0141051984 1.5225564994 6.2320086749
236 1 3 -2.0 13.0141051984 1.5225564994 16.6757386739
237 1 3 -2.0 13.0141051984 1.5225564994 27.119468676
238 1 3 -2.0 13.0141051984 7.6127825006 6.2320086749
239 1 3 -2.0 13.0141051984 7.6127825006 16.6757386739
240 1 3 -2.0 13.0141051984 7.6127825006 27.119468676
241 1 3 -2.0 13.0141051984 13.7030085 6.2320086749
242 1 3 -2.0 13.0141051984 13.7030085 16.6757386739
243 1 3 -2.0 13.0141051984 13.7030085 27.119468676
244 1 3 -2.0 1.1480026989 4.5676695 9.4335863251
245 1 3 -2.0 1.1480026989 4.5676695 19.877316324
246 1 3 -2.0 1.1480026989 4.5676695 30.3210463261
247 1 3 -2.0 1.1480026989 10.6578954994 9.4335863251
248 1 3 -2.0 1.1480026989 10.6578954994 19.877316324
249 1 3 -2.0 1.1480026989 10.6578954994 30.3210463261
250 1 3 -2.0 1.1480026989 16.7481215006 9.4335863251
251 1 3 -2.0 1.1480026989 16.7481215006 19.877316324
252 1 3 -2.0 1.1480026989 16.7481215006 30.3210463261
253 1 3 -2.0 5.8944436984 4.5676695 9.4335863251
254 1 3 -2.0 5.8944436984 4.5676695 19.877316324
255 1 3 -2.0 5.8944436984 4.5676695 30.3210463261
256 1 3 -2.0 5.8944436984 10.6578954994 9.4335863251
257 1 3 -2.0 5.8944436984 10.6578954994 19.877316324
258 1 3 -2.0 5.8944436984 10.6578954994 30.3210463261
259 1 3 -2.0 5.8944436984 16.7481215006 9.4335863251
260 1 3 -2.0 5.8944436984 16.7481215006 19.877316324
261 1 3 -2.0 5.8944436984 16.7481215006 30.3210463261
262 1 3 -2.0 10.6408846994 4.5676695 9.4335863251
263 1 3 -2.0 10.6408846994 4.5676695 19.877316324
264 1 3 -2.0 10.6408846994 4.5676695 30.3210463261
265 1 3 -2.0 10.6408846994 10.6578954994 9.4335863251
266 1 3 -2.0 10.6408846994 10.6578954994 19.877316324
267 1 3 -2.0 10.6408846994 10.6578954994 30.3210463261
268 1 3 -2.0 10.6408846994 16.7481215006 9.4335863251
269 1 3 -2.0 10.6408846994 16.7481215006 19.877316324
270 1 3 -2.0 10.6408846994 16.7481215006 30.3210463261
271 1 3 -2.0 3.5984383006 1.5225564994 1.0101436739
272 1 3 -2.0 3.5984383006 1.5225564994 11.453873676
273 1 3 -2.0 3.5984383006 1.5225564994 21.8976036749
274 1 3 -2.0 3.5984383006 7.6127825006 1.0101436739
275 1 3 -2.0 3.5984383006 7.6127825006 11.453873676
276 1 3 -2.0 3.5984383006 7.6127825006 21.8976036749
277 1 3 -2.0 3.5984383006 13.7030085 1.0101436739
278 1 3 -2.0 3.5984383006 13.7030085 11.453873676
279 1 3 -2.0 3.5984383006 13.7030085 21.8976036749
280 1 3 -2.0 8.3448793016 1.5225564994 1.0101436739
281 1 3 -2.0 8.3448793016 1.5225564994 11.453873676
282 1 3 -2.0 8.3448793016 1.5225564994 21.8976036749
283 1 3 -2.0 8.3448793016 7.6127825006 1.0101436739
284 1 3 -2.0 8.3448793016 7.6127825006 11.453873676
285 1 3 -2.0 8.3448793016 7.6127825006 21.8976036749
286 1 3 -2.0 8.3448793016 13.7030085 1.0101436739
287 1 3 -2.0 8.3448793016 13.7030085 11.453873676
288 1 3 -2.0 8.3448793016 13.7030085 21.8976036749
289 1 3 -2.0 13.0913203011 1.5225564994 1.0101436739
290 1 3 -2.0 13.0913203011 1.5225564994 11.453873676
291 1 3 -2.0 13.0913203011 1.5225564994 21.8976036749
292 1 3 -2.0 13.0913203011 7.6127825006 1.0101436739
293 1 3 -2.0 13.0913203011 7.6127825006 11.453873676
294 1 3 -2.0 13.0913203011 7.6127825006 21.8976036749
295 1 3 -2.0 13.0913203011 13.7030085 1.0101436739
296 1 3 -2.0 13.0913203011 13.7030085 11.453873676
297 1 3 -2.0 13.0913203011 13.7030085 21.8976036749
298 1 3 -2.0 1.2252178016 4.5676695 4.211721324
299 1 3 -2.0 1.2252178016 4.5676695 14.6554513261
300 1 3 -2.0 1.2252178016 4.5676695 25.0991813251
301 1 3 -2.0 1.2252178016 10.6578954994 4.211721324
302 1 3 -2.0 1.2252178016 10.6578954994 14.6554513261
303 1 3 -2.0 1.2252178016 10.6578954994 25.0991813251
304 1 3 -2.0 1.2252178016 16.7481215006 4.211721324
305 1 3 -2.0 1.2252178016 16.7481215006 14.6554513261
306 1 3 -2.0 1.2252178016 16.7481215006 25.0991813251
307 1 3 -2.0 5.9716588011 4.5676695 4.211721324
308 1 3 -2.0 5.9716588011 4.5676695 14.6554513261
309 1 3 -2.0 5.9716588011 4.5676695 25.0991813251
310 1 3 -2.0 5.9716588011 10.6578954994 4.211721324
311 1 3 -2.0 5.9716588011 10.6578954994 14.6554513261
312 1 3 -2.0 5.9716588011 10.6578954994 25.0991813251
313 1 3 -2.0 5.9716588011 16.7481215006 4.211721324
314 1 3 -2.0 5.9716588011 16.7481215006 14.6554513261
315 1 3 -2.0 5.9716588011 16.7481215006 25.0991813251
316 1 3 -2.0 10.7180998006 4.5676695 4.211721324
317 1 3 -2.0 10.7180998006 4.5676695 14.6554513261
318 1 3 -2.0 10.7180998006 4.5676695 25.0991813251
319 1 3 -2.0 10.7180998006 10.6578954994 4.211721324
320 1 3 -2.0 10.7180998006 10.6578954994 14.6554513261
321 1 3 -2.0 10.7180998006 10.6578954994 25.0991813251
322 1 3 -2.0 10.7180998006 16.7481215006 4.211721324
323 1 3 -2.0 10.7180998006 16.7481215006 14.6554513261
324 1 3 -2.0 10.7180998006 16.7481215006 25.0991813251
325 1 3 -2.0 0.9822569792 1.5225564994 9.9953650045
326 1 3 -2.0 0.9822569792 1.5225564994 20.4390950065
327 1 3 -2.0 0.9822569792 1.5225564994 30.8828250055
328 1 3 -2.0 0.9822569792 7.6127825006 9.9953650045
329 1 3 -2.0 0.9822569792 7.6127825006 20.4390950065
330 1 3 -2.0 0.9822569792 7.6127825006 30.8828250055
331 1 3 -2.0 0.9822569792 13.7030085 9.9953650045
332 1 3 -2.0 0.9822569792 13.7030085 20.4390950065
333 1 3 -2.0 0.9822569792 13.7030085 30.8828250055
334 1 3 -2.0 5.7286979787 1.5225564994 9.9953650045
335 1 3 -2.0 5.7286979787 1.5225564994 20.4390950065
336 1 3 -2.0 5.7286979787 1.5225564994 30.8828250055
337 1 3 -2.0 5.7286979787 7.6127825006 9.9953650045
338 1 3 -2.0 5.7286979787 7.6127825006 20.4390950065
339 1 3 -2.0 5.7286979787 7.6127825006 30.8828250055
340 1 3 -2.0 5.7286979787 13.7030085 9.9953650045
341 1 3 -2.0 5.7286979787 13.7030085 20.4390950065
342 1 3 -2.0 5.7286979787 13.7030085 30.8828250055
343 1 3 -2.0 10.4751389797 1.5225564994 9.9953650045
344 1 3 -2.0 10.4751389797 1.5225564994 20.4390950065
345 1 3 -2.0 10.4751389797 1.5225564994 30.8828250055
346 1 3 -2.0 10.4751389797 7.6127825006 9.9953650045
347 1 3 -2.0 10.4751389797 7.6127825006 20.4390950065
348 1 3 -2.0 10.4751389797 7.6127825006 30.8828250055
349 1 3 -2.0 10.4751389797 13.7030085 9.9953650045
350 1 3 -2.0 10.4751389797 13.7030085 20.4390950065
351 1 3 -2.0 10.4751389797 13.7030085 30.8828250055
352 1 3 -2.0 3.3554774797 4.5676695 5.6702299955
353 1 3 -2.0 3.3554774797 4.5676695 16.1139599945
354 1 3 -2.0 3.3554774797 4.5676695 26.5576899935
355 1 3 -2.0 3.3554774797 10.6578954994 5.6702299955
356 1 3 -2.0 3.3554774797 10.6578954994 16.1139599945
357 1 3 -2.0 3.3554774797 10.6578954994 26.5576899935
358 1 3 -2.0 3.3554774797 16.7481215006 5.6702299955
359 1 3 -2.0 3.3554774797 16.7481215006 16.1139599945
360 1 3 -2.0 3.3554774797 16.7481215006 26.5576899935
361 1 3 -2.0 8.1019184792 4.5676695 5.6702299955
362 1 3 -2.0 8.1019184792 4.5676695 16.1139599945
363 1 3 -2.0 8.1019184792 4.5676695 26.5576899935
364 1 3 -2.0 8.1019184792 10.6578954994 5.6702299955
365 1 3 -2.0 8.1019184792 10.6578954994 16.1139599945
366 1 3 -2.0 8.1019184792 10.6578954994 26.5576899935
367 1 3 -2.0 8.1019184792 16.7481215006 5.6702299955
368 1 3 -2.0 8.1019184792 16.7481215006 16.1139599945
369 1 3 -2.0 8.1019184792 16.7481215006 26.5576899935
370 1 3 -2.0 12.8483594787 4.5676695 5.6702299955
371 1 3 -2.0 12.8483594787 4.5676695 16.1139599945
372 1 3 -2.0 12.8483594787 4.5676695 26.5576899935
373 1 3 -2.0 12.8483594787 10.6578954994 5.6702299955
374 1 3 -2.0 12.8483594787 10.6578954994 16.1139599945
375 1 3 -2.0 12.8483594787 10.6578954994 26.5576899935
376 1 3 -2.0 12.8483594787 16.7481215006 5.6702299955
377 1 3 -2.0 12.8483594787 16.7481215006 16.1139599945
378 1 3 -2.0 12.8483594787 16.7481215006 26.5576899935
379 1 3 -2.0 1.3909635213 1.5225564994 4.7735000065
380 1 3 -2.0 1.3909635213 1.5225564994 15.2172300055
381 1 3 -2.0 1.3909635213 1.5225564994 25.6609600045
382 1 3 -2.0 1.3909635213 7.6127825006 4.7735000065
383 1 3 -2.0 1.3909635213 7.6127825006 15.2172300055
384 1 3 -2.0 1.3909635213 7.6127825006 25.6609600045
385 1 3 -2.0 1.3909635213 13.7030085 4.7735000065
386 1 3 -2.0 1.3909635213 13.7030085 15.2172300055
387 1 3 -2.0 1.3909635213 13.7030085 25.6609600045
388 1 3 -2.0 6.1374045208 1.5225564994 4.7735000065
389 1 3 -2.0 6.1374045208 1.5225564994 15.2172300055
390 1 3 -2.0 6.1374045208 1.5225564994 25.6609600045
391 1 3 -2.0 6.1374045208 7.6127825006 4.7735000065
392 1 3 -2.0 6.1374045208 7.6127825006 15.2172300055
393 1 3 -2.0 6.1374045208 7.6127825006 25.6609600045
394 1 3 -2.0 6.1374045208 13.7030085 4.7735000065
395 1 3 -2.0 6.1374045208 13.7030085 15.2172300055
396 1 3 -2.0 6.1374045208 13.7030085 25.6609600045
397 1 3 -2.0 10.8838455203 1.5225564994 4.7735000065
398 1 3 -2.0 10.8838455203 1.5225564994 15.2172300055
399 1 3 -2.0 10.8838455203 1.5225564994 25.6609600045
400 1 3 -2.0 10.8838455203 7.6127825006 4.7735000065
401 1 3 -2.0 10.8838455203 7.6127825006 15.2172300055
402 1 3 -2.0 10.8838455203 7.6127825006 25.6609600045
403 1 3 -2.0 10.8838455203 13.7030085 4.7735000065
404 1 3 -2.0 10.8838455203 13.7030085 15.2172300055
405 1 3 -2.0 10.8838455203 13.7030085 25.6609600045
406 1 3 -2.0 3.7641840203 4.5676695 0.4483649945
407 1 3 -2.0 3.7641840203 4.5676695 10.8920949935
408 1 3 -2.0 3.7641840203 4.5676695 21.3358249955
409 1 3 -2.0 3.7641840203 10.6578954994 0.4483649945
410 1 3 -2.0 3.7641840203 10.6578954994 10.8920949935
411 1 3 -2.0 3.7641840203 10.6578954994 21.3358249955
412 1 3 -2.0 3.7641840203 16.7481215006 0.4483649945
413 1 3 -2.0 3.7641840203 16.7481215006 10.8920949935
414 1 3 -2.0 3.7641840203 16.7481215006 21.3358249955
415 1 3 -2.0 8.5106250213 4.5676695 0.4483649945
416 1 3 -2.0 8.5106250213 4.5676695 10.8920949935
417 1 3 -2.0 8.5106250213 4.5676695 21.3358249955
418 1 3 -2.0 8.5106250213 10.6578954994 0.4483649945
419 1 3 -2.0 8.5106250213 10.6578954994 10.8920949935
420 1 3 -2.0 8.5106250213 10.6578954994 21.3358249955
421 1 3 -2.0 8.5106250213 16.7481215006 0.4483649945
422 1 3 -2.0 8.5106250213 16.7481215006 10.8920949935
423 1 3 -2.0 8.5106250213 16.7481215006 21.3358249955
424 1 3 -2.0 13.2570660208 4.5676695 0.4483649945
425 1 3 -2.0 13.2570660208 4.5676695 10.8920949935
426 1 3 -2.0 13.2570660208 4.5676695 21.3358249955
427 1 3 -2.0 13.2570660208 10.6578954994 0.4483649945
428 1 3 -2.0 13.2570660208 10.6578954994 10.8920949935
429 1 3 -2.0 13.2570660208 10.6578954994 21.3358249955
430 1 3 -2.0 13.2570660208 16.7481215006 0.4483649945
431 1 3 -2.0 13.2570660208 16.7481215006 10.8920949935
432 1 3 -2.0 13.2570660208 16.7481215006 21.3358249955
433 1 3 -2.0 1.3504194213 0.2862588933 6.9501717694
434 1 3 -2.0 1.3504194213 0.2862588933 17.3939017684
435 1 3 -2.0 1.3504194213 0.2862588933 27.8376317673
436 1 3 -2.0 1.3504194213 6.3764848927 6.9501717694
437 1 3 -2.0 1.3504194213 6.3764848927 17.3939017684
438 1 3 -2.0 1.3504194213 6.3764848927 27.8376317673
439 1 3 -2.0 1.3504194213 12.4667108921 6.9501717694
440 1 3 -2.0 1.3504194213 12.4667108921 17.3939017684
441 1 3 -2.0 1.3504194213 12.4667108921 27.8376317673
442 1 3 -2.0 6.0968604223 0.2862588933 6.9501717694
443 1 3 -2.0 6.0968604223 0.2862588933 17.3939017684
444 1 3 -2.0 6.0968604223 0.2862588933 27.8376317673
445 1 3 -2.0 6.0968604223 6.3764848927 6.9501717694
446 1 3 -2.0 6.0968604223 6.3764848927 17.3939017684
447 1 3 -2.0 6.0968604223 6.3764848927 27.8376317673
448 1 3 -2.0 6.0968604223 12.4667108921 6.9501717694
449 1 3 -2.0 6.0968604223 12.4667108921 17.3939017684
450 1 3 -2.0 6.0968604223 12.4667108921 27.8376317673
451 1 3 -2.0 10.8433014218 0.2862588933 6.9501717694
452 1 3 -2.0 10.8433014218 0.2862588933 17.3939017684
453 1 3 -2.0 10.8433014218 0.2862588933 27.8376317673
454 1 3 -2.0 10.8433014218 6.3764848927 6.9501717694
455 1 3 -2.0 10.8433014218 6.3764848927 17.3939017684
456 1 3 -2.0 10.8433014218 6.3764848927 27.8376317673
457 1 3 -2.0 10.8433014218 12.4667108921 6.9501717694
458 1 3 -2.0 10.8433014218 12.4667108921 17.3939017684
459 1 3 -2.0 10.8433014218 12.4667108921 27.8376317673
460 1 3 -2.0 3.7236399218 5.8039671079 8.7154232306
461 1 3 -2.0 3.7236399218 5.8039671079 19.1591532327
462 1 3 -2.0 3.7236399218 5.8039671079 29.6028832316
463 1 3 -2.0 3.7236399218 11.8941931073 8.7154232306
464 1 3 -2.0 3.7236399218 11.8941931073 19.1591532327
465 1 3 -2.0 3.7236399218 11.8941931073 29.6028832316
466 1 3 -2.0 3.7236399218 17.9844191067 8.7154232306
467 1 3 -2.0 3.7236399218 17.9844191067 19.1591532327
468 1 3 -2.0 3.7236399218 17.9844191067 29.6028832316
469 1 3 -2.0 8.4700809213 5.8039671079 8.7154232306
470 1 3 -2.0 8.4700809213 5.8039671079 19.1591532327
471 1 3 -2.0 8.4700809213 5.8039671079 29.6028832316
472 1 3 -2.0 8.4700809213 11.8941931073 8.7154232306
473 1 3 -2.0 8.4700809213 11.8941931073 19.1591532327
474 1 3 -2.0 8.4700809213 11.8941931073 29.6028832316
475 1 3 -2.0 8.4700809213 17.9844191067 8.7154232306
476 1 3 -2.0 8.4700809213 17.9844191067 19.1591532327
477 1 3 -2.0 8.4700809213 17.9844191067 29.6028832316
478 1 3 -2.0 13.2165219223 5.8039671079 8.7154232306
479 1 3 -2.0 13.2165219223 5.8039671079 19.1591532327
480 1 3 -2.0 13.2165219223 5.8039671079 29.6028832316
481 1 3 -2.0 13.2165219223 11.8941931073 8.7154232306
482 1 3 -2.0 13.2165219223 11.8941931073 19.1591532327
483 1 3 -2.0 13.2165219223 11.8941931073 29.6028832316
484 1 3 -2.0 13.2165219223 17.9844191067 8.7154232306
485 1 3 -2.0 13.2165219223 17.9844191067 19.1591532327
486 1 3 -2.0 13.2165219223 17.9844191067 29.6028832316
487 1 3 -2.0 3.7236399218 3.3313718921 8.7154232306
488 1 3 -2.0 3.7236399218 3.3313718921 19.1591532327
489 1 3 -2.0 3.7236399218 3.3313718921 29.6028832316
490 1 3 -2.0 3.7236399218 9.4215978933 8.7154232306
491 1 3 -2.0 3.7236399218 9.4215978933 19.1591532327
492 1 3 -2.0 3.7236399218 9.4215978933 29.6028832316
493 1 3 -2.0 3.7236399218 15.5118238927 8.7154232306
494 1 3 -2.0 3.7236399218 15.5118238927 19.1591532327
495 1 3 -2.0 3.7236399218 15.5118238927 29.6028832316
496 1 3 -2.0 8.4700809213 3.3313718921 8.7154232306
497 1 3 -2.0 8.4700809213 3.3313718921 19.1591532327
498 1 3 -2.0 8.4700809213 3.3313718921 29.6028832316
499 1 3 -2.0 8.4700809213 9.4215978933 8.7154232306
500 1 3 -2.0 8.4700809213 9.4215978933 19.1591532327
501 1 3 -2.0 8.4700809213 9.4215978933 29.6028832316
502 1 3 -2.0 8.4700809213 15.5118238927 8.7154232306
503 1 3 -2.0 8.4700809213 15.5118238927 19.1591532327
504 1 3 -2.0 8.4700809213 15.5118238927 29.6028832316
505 1 3 -2.0 13.2165219223 3.3313718921 8.7154232306
506 1 3 -2.0 13.2165219223 3.3313718921 19.1591532327
507 1 3 -2.0 13.2165219223 3.3313718921 29.6028832316
508 1 3 -2.0 13.2165219223 9.4215978933 8.7154232306
509 1 3 -2.0 13.2165219223 9.4215978933 19.1591532327
510 1 3 -2.0 13.2165219223 9.4215978933 29.6028832316
511 1 3 -2.0 13.2165219223 15.5118238927 8.7154232306
512 1 3 -2.0 13.2165219223 15.5118238927 19.1591532327
513 1 3 -2.0 13.2165219223 15.5118238927 29.6028832316
514 1 3 -2.0 1.3504194213 2.7588541073 6.9501717694
515 1 3 -2.0 1.3504194213 2.7588541073 17.3939017684
516 1 3 -2.0 1.3504194213 2.7588541073 27.8376317673
517 1 3 -2.0 1.3504194213 8.8490801067 6.9501717694
518 1 3 -2.0 1.3504194213 8.8490801067 17.3939017684
519 1 3 -2.0 1.3504194213 8.8490801067 27.8376317673
520 1 3 -2.0 1.3504194213 14.9393061079 6.9501717694
521 1 3 -2.0 1.3504194213 14.9393061079 17.3939017684
522 1 3 -2.0 1.3504194213 14.9393061079 27.8376317673
523 1 3 -2.0 6.0968604223 2.7588541073 6.9501717694
524 1 3 -2.0 6.0968604223 2.7588541073 17.3939017684
525 1 3 -2.0 6.0968604223 2.7588541073 27.8376317673
526 1 3 -2.0 6.0968604223 8.8490801067 6.9501717694
527 1 3 -2.0 6.0968604223 8.8490801067 17.3939017684
528 1 3 -2.0 6.0968604223 8.8490801067 27.8376317673
529 1 3 -2.0 6.0968604223 14.9393061079 6.9501717694
530 1 3 -2.0 6.0968604223 14.9393061079 17.3939017684
531 1 3 -2.0 6.0968604223 14.9393061079 27.8376317673
532 1 3 -2.0 10.8433014218 2.7588541073 6.9501717694
533 1 3 -2.0 10.8433014218 2.7588541073 17.3939017684
534 1 3 -2.0 10.8433014218 2.7588541073 27.8376317673
535 1 3 -2.0 10.8433014218 8.8490801067 6.9501717694
536 1 3 -2.0 10.8433014218 8.8490801067 17.3939017684
537 1 3 -2.0 10.8433014218 8.8490801067 27.8376317673
538 1 3 -2.0 10.8433014218 14.9393061079 6.9501717694
539 1 3 -2.0 10.8433014218 14.9393061079 17.3939017684
540 1 3 -2.0 10.8433014218 14.9393061079 27.8376317673
541 1 3 -2.0 1.0228010777 2.7588541073 1.7283067684
542 1 3 -2.0 1.0228010777 2.7588541073 12.1720367673
543 1 3 -2.0 1.0228010777 2.7588541073 22.6157667694
544 1 3 -2.0 1.0228010777 8.8490801067 1.7283067684
545 1 3 -2.0 1.0228010777 8.8490801067 12.1720367673
546 1 3 -2.0 1.0228010777 8.8490801067 22.6157667694
547 1 3 -2.0 1.0228010777 14.9393061079 1.7283067684
548 1 3 -2.0 1.0228010777 14.9393061079 12.1720367673
549 1 3 -2.0 1.0228010777 14.9393061079 22.6157667694
550 1 3 -2.0 5.7692420787 2.7588541073 1.7283067684
551 1 3 -2.0 5.7692420787 2.7588541073 12.1720367673
552 1 3 -2.0 5.7692420787 2.7588541073 22.6157667694
553 1 3 -2.0 5.7692420787 8.8490801067 1.7283067684
554 1 3 -2.0 5.7692420787 8.8490801067 12.1720367673
555 1 3 -2.0 5.7692420787 8.8490801067 22.6157667694
556 1 3 -2.0 5.7692420787 14.9393061079 1.7283067684
557 1 3 -2.0 5.7692420787 14.9393061079 12.1720367673
558 1 3 -2.0 5.7692420787 14.9393061079 22.6157667694
559 1 3 -2.0 10.5156830782 2.7588541073 1.7283067684
560 1 3 -2.0 10.5156830782 2.7588541073 12.1720367673
561 1 3 -2.0 10.5156830782 2.7588541073 22.6157667694
562 1 3 -2.0 10.5156830782 8.8490801067 1.7283067684
563 1 3 -2.0 10.5156830782 8.8490801067 12.1720367673
564 1 3 -2.0 10.5156830782 8.8490801067 22.6157667694
565 1 3 -2.0 10.5156830782 14.9393061079 1.7283067684
566 1 3 -2.0 10.5156830782 14.9393061079 12.1720367673
567 1 3 -2.0 10.5156830782 14.9393061079 22.6157667694
568 1 3 -2.0 3.3960215782 3.3313718921 3.4935582327
569 1 3 -2.0 3.3960215782 3.3313718921 13.9372882316
570 1 3 -2.0 3.3960215782 3.3313718921 24.3810182306
571 1 3 -2.0 3.3960215782 9.4215978933 3.4935582327
572 1 3 -2.0 3.3960215782 9.4215978933 13.9372882316
573 1 3 -2.0 3.3960215782 9.4215978933 24.3810182306
574 1 3 -2.0 3.3960215782 15.5118238927 3.4935582327
575 1 3 -2.0 3.3960215782 15.5118238927 13.9372882316
576 1 3 -2.0 3.3960215782 15.5118238927 24.3810182306
577 1 3 -2.0 8.1424625777 3.3313718921 3.4935582327
578 1 3 -2.0 8.1424625777 3.3313718921 13.9372882316
579 1 3 -2.0 8.1424625777 3.3313718921 24.3810182306
580 1 3 -2.0 8.1424625777 9.4215978933 3.4935582327
581 1 3 -2.0 8.1424625777 9.4215978933 13.9372882316
582 1 3 -2.0 8.1424625777 9.4215978933 24.3810182306
583 1 3 -2.0 8.1424625777 15.5118238927 3.4935582327
584 1 3 -2.0 8.1424625777 15.5118238927 13.9372882316
585 1 3 -2.0 8.1424625777 15.5118238927 24.3810182306
586 1 3 -2.0 12.8889035787 3.3313718921 3.4935582327