LAMMPS data file via write_data, version 29 Oct 2020, timestep = 16

756 atoms
4 atom types

0.0 14.239323 xlo xhi
0.0 18.270678 ylo yhi
0.0 31.33119 zlo zhi

Masses

1 55.845
2 6.94
3 15.9994
4 30.973761998

Atoms # full

1 1 1 1.2 2.2078562447542254 4.567669499998656 7.52890410083226 0 0 0
10 1 1 1.2 6.954297321992514 4.567669499998532 7.528904120339856 0 0 0
28 1 1 1.2 0.16536420964227347 4.567669499999112 2.307039068431486 0 0 0
37 1 1 1.2 4.9118051601997665 4.567669499999107 2.307039043300551 0 0 0
82 1 1 1.2 2.538584689638761 1.522555177574095 2.914825602903011 0 0 0
85 1 1 1.2 2.5385846896387743 7.612783822424925 2.9148256029027104 0 0 0
121 1 2 0.6 4.746440686606304 6.090226682506025 5.221864892300099 0 0 0
199 1 2 0.6 4.746440686606236 3.0451123174931793 5.221864892300126 0 0 0
217 1 3 -1.2 3.4789466283493473 1.5225568317000513 6.225216372823035 0 0 0
220 1 3 -1.2 3.478946628348697 7.61278216830136 6.225216372823731 0 0 0
271 1 3 -1.2 3.6407158592508906 1.5225568584400693 1.0033513794126971 0 0 0
274 1 3 -1.2 3.640715859247925 7.612782141560862 1.003351379413101 0 0 0
298 1 3 -1.2 1.267494967285765 4.567669500000946 4.21851332534221 0 0 0
307 1 3 -1.2 6.013935519290714 4.567669500001015 4.21851327231407 0 0 0
352 1 3 -1.2 3.2994106708591353 4.567669500001024 5.664818130611122 0 0 0
379 1 3 -1.2 1.447030389942221 1.5225570605578973 4.778911679717302 0 0 0
382 1 3 -1.2 1.447030389943388 7.612781939443294 4.778911679720988 0 0 0
388 1 3 -1.2 6.193471274691114 1.5225571138476897 4.7789114290157 0 0 0
391 1 3 -1.2 6.193471274692819 7.612781886153662 4.77891142902001 0 0 0
406 1 3 -1.2 3.82025108384451 4.567669500000717 0.44295296481995017 0 0 0
433 1 3 -1.2 1.3905059985960428 0.30263212992966354 6.8951634914442925 0 0 0
436 1 3 -1.2 1.39050638729758 6.39285871256731 6.895163681852444 0 0 0
442 1 3 -1.2 6.136946973442611 0.30263226395554216 6.8951633496078575 0 0 0
445 1 3 -1.2 6.1369473209914425 6.392858627532862 6.89516364410434 0 0 0
514 1 3 -1.2 1.3905063872959138 2.742480287438618 6.8951636818540685 0 0 0
517 1 3 -1.2 1.3905059985930637 8.832706870077399 6.895163491448632 0 0 0
523 1 3 -1.2 6.136947320988976 2.742480372474432 6.895163644106721 0 0 0
526 1 3 -1.2 6.1369469734398825 8.832706736052094 6.89516334961232 0 0 0
541 1 3 -1.2 0.9827141893191434 2.7424804105656295 1.6732987099114904 0 0 0
544 1 3 -1.2 0.9827145500843001 8.832706805298942 1.6732984347738153 0 0 0
550 1 3 -1.2 5.729155367747981 2.742480574810931 1.6732987440889335 0 0 0
553 1 3 -1.2 5.729155729146669 8.832706955663717 1.6732985316927453 0 0 0
568 1 3 -1.2 3.3559348348182136 3.347745316352009 3.5485660156056698 0 0 0
595 1 3 -1.2 3.355934834821158 5.787593683656232 3.54856601560211 0 0 0
622 1 3 -1.2 0.982714550082879 0.30263219470481745 1.6732984347716744 0 0 0
625 1 3 -1.2 0.9827141893172497 6.39285858943978 1.6732987099093608 0 0 0
631 1 3 -1.2 5.729155729145398 0.30263204433954877 1.6732985316908338 0 0 0
634 1 3 -1.2 5.729155367746121 6.392858425194535 1.6732987440868718 0 0 0
649 1 4 3.0 1.9716045572839005 1.5225561302386053 6.203664562768165 0 0 0
652 1 4 3.0 1.971604557284645 7.612782869747649 6.203664562761941 0 0 0
658 1 4 3.0 6.718046100855086 1.5225559135384727 6.203664936847121 0 0 0
661 1 4 3.0 6.71804610085308 7.612783086445593 6.203664936840826 0 0 0
703 1 4 3.0 0.40161533929644055 1.522555971767884 0.9817996379648756 0 0 0
706 1 4 3.0 0.40161533929866106 7.612783028222402 0.9817996379638073 0 0 0
712 1 4 3.0 5.148055370097387 1.5225559783708789 0.9817995103159926 0 0 0
715 1 4 3.0 5.148055370101817 7.612783021619856 0.9817995103138578 0 0 0
730 1 4 3.0 2.774834910083295 4.5676694999911325 4.240065066165291 0 0 0
145 1 2 0.6 7.119661499997629 3.4944002160635723e-13 7.189336957622784e-13 0 0 0
112 1 2 0.6 14.239322693877712 6.090226682277001 5.221864855448281 -1 0 0
190 1 2 0.6 14.239322693877565 3.0451123177222015 5.221864855448318 -1 0 0
19 1 1 1.2 11.700738397028553 4.5676694999984555 7.528904013124356 0 0 0
46 1 1 1.2 9.658246234934756 4.567669499999001 2.307039039913134 0 0 0
91 1 1 1.2 7.285025754756613 1.522555194412584 2.9148256447416476 0 0 0
94 1 1 1.2 7.285025754756465 7.61278380558629 2.9148256447412133 0 0 0
100 1 1 1.2 12.031466758889552 1.5225551867748555 2.914825588111437 0 0 0
103 1 1 1.2 12.031466758889934 7.612783813223902 2.914825588110984 0 0 0
130 1 2 0.6 9.492881703199037 6.090226673834097 5.221864870001722 0 0 0
154 1 2 0.6 11.866102517611505 3.4277491759475195e-08 1.5789640113257102e-08 0 0 0
184 1 2 0.6 11.866102517611548 9.135338965722447 1.5789458491118766e-08 0 0 0
208 1 2 0.6 9.492881703198933 3.0451123261649067 5.221864870001772 0 0 0
226 1 3 -1.2 8.225387334217233 1.5225568553214248 6.225216330174335 0 0 0
229 1 3 -1.2 8.225387334218128 7.612782144680311 6.225216330175037 0 0 0
235 1 3 -1.2 12.971827937173396 1.5225568596084769 6.225216365211277 0 0 0
238 1 3 -1.2 12.971827937168014 7.612782140393179 6.225216365211942 0 0 0
280 1 3 -1.2 8.387155489009618 1.5225568648587688 1.003351385518754 0 0 0
283 1 3 -1.2 8.387155489007046 7.612782135142306 1.0033513855192495 0 0 0
289 1 3 -1.2 13.133597279521736 1.5225568661578124 1.0033513621274763 0 0 0
292 1 3 -1.2 13.133597279520453 7.612782133843133 1.0033513621277423 0 0 0
316 1 3 -1.2 10.760375874574613 4.56766950000111 4.218513282197902 0 0 0
361 1 3 -1.2 8.045851552947385 4.567669500001197 5.664817905652433 0 0 0
370 1 3 -1.2 12.792292452364558 4.567669500001107 5.664818048509264 0 0 0
397 1 3 -1.2 10.939912233490032 1.522557095389378 4.7789115845729775 0 0 0
400 1 3 -1.2 10.939912233490187 7.6127819046123495 4.778911584575094 0 0 0
415 1 3 -1.2 8.56669178719823 4.56766950000079 0.4429532087925542 0 0 0
424 1 3 -1.2 13.313132920011359 4.567669500000745 0.442953018078999 0 0 0
451 1 3 -1.2 10.88338788120002 0.3026321353343797 6.895163485572161 0 0 0
454 1 3 -1.2 10.88338819964191 6.392858433545445 6.895163813657259 0 0 0
532 1 3 -1.2 10.883388199639969 2.7424805664621132 6.895163813659567 0 0 0
535 1 3 -1.2 10.88338788119553 8.832706864675751 6.8951634855779265 0 0 0
559 1 3 -1.2 10.475596053236288 2.7424803552410992 1.6732986922253879 0 0 0
562 1 3 -1.2 10.47559635878572 8.832706619266958 1.6732983633900038 0 0 0
577 1 3 -1.2 8.102375697677193 3.347745404798947 3.548566020924006 0 0 0
586 1 3 -1.2 12.84881656384155 3.3477455740132522 3.548566131215988 0 0 0
604 1 3 -1.2 8.102375697680431 5.787593595210143 3.548566020920178 0 0 0
613 1 3 -1.2 12.848816563844723 5.787593425995959 3.5485661312119783 0 0 0
640 1 3 -1.2 10.47559635878451 0.3026323807371688 1.673298363387426 0 0 0
643 1 3 -1.2 10.475596053233982 6.392858644765181 1.6732986922230024 0 0 0
667 1 4 3.0 11.464487648841946 1.5225558308386191 6.203664469887007 0 0 0
670 1 4 3.0 11.464487648849326 7.612783169142704 6.203664469881653 0 0 0
721 1 4 3.0 9.894498432785626 1.5225558188370465 0.9817996080577285 0 0 0
724 1 4 3.0 9.894498432789923 7.612783181151996 0.9817996080556587 0 0 0
739 1 4 3.0 7.5212766791722965 4.567669499990222 4.2400652952713855 0 0 0
748 1 4 3.0 12.267718590762358 4.5676694999900365 4.240064819707298 0 0 0
176 1 2 0.6 7.1196614626709165 9.135338990154185 10.443730001135306 0 0 0
167 1 2 0.6 2.3732205140341147 9.13533896752936 10.443729985891768 0 0 0
29 1 1 1.2 0.16536425965826032 4.567669499998247 12.750769008008046 0 0 0
38 1 1 1.2 4.911805199388432 4.567669499998359 12.750769037091647 0 0 0
55 1 1 1.2 4.581076784366691 1.5225552082357188 8.136690623052155 0 0 0
58 1 1 1.2 4.581076784366626 7.612783791762812 8.136690623051841 0 0 0
83 1 1 1.2 2.538584805684831 1.522555200210468 13.35855560490934 0 0 0
86 1 1 1.2 2.5385848056849727 7.612783799787936 13.358555604909423 0 0 0
137 1 2 0.6 2.3732205140340255 3.247054329127951e-08 10.443729985891874 0 0 0
140 1 2 0.6 2.373220803914148 6.090226660493701 10.443729847940348 0 0 0
164 1 2 0.6 2.3732208039142098 3.0451123395051813 10.44372984794017 0 0 0
244 1 3 -1.2 1.1057256645960665 4.567669500001634 9.440378363399473 0 0 0
253 1 3 -1.2 5.852167090049673 4.567669500001558 9.440378273471296 0 0 0
272 1 3 -1.2 3.640715076043048 1.522556846061623 11.447081350486872 0 0 0
275 1 3 -1.2 3.640715076039223 7.612782153940116 11.44708135048703 0 0 0
299 1 3 -1.2 1.2674938230221757 4.567669500001665 14.662243333826122 0 0 0
308 1 3 -1.2 6.013935514641494 4.567669500001731 14.662243333117587 0 0 0
325 1 3 -1.2 0.9261901019949466 1.522557081655801 10.000776830449245 0 0 0
328 1 3 -1.2 0.9261901019938191 7.612781918345797 10.00077683045039 0 0 0
334 1 3 -1.2 5.672631199761717 1.5225570793392584 10.00077652850023 0 0 0
337 1 3 -1.2 5.672631199761227 7.612781920662291 10.000776528500706 0 0 0
380 1 3 -1.2 1.4470301747177587 1.5225570543751437 15.222641474354196 0 0 0
383 1 3 -1.2 1.447030174717088 7.612781945626259 15.222641474351159 0 0 0
389 1 3 -1.2 6.193471305594662 1.5225570923409364 15.222641590291477 0 0 0
392 1 3 -1.2 6.193471305595878 7.612781907660719 15.222641590291271 0 0 0
407 1 3 -1.2 3.8202509404229668 4.567669500001514 10.886682995770826 0 0 0
460 1 3 -1.2 3.763726825015704 5.787593563523183 8.770431072993942 0 0 0
487 1 3 -1.2 3.7637268250205445 3.3477454364903436 8.770431072999877 0 0 0
542 1 3 -1.2 0.9827141198321763 2.7424803493986434 12.117028749161337 0 0 0
545 1 3 -1.2 0.9827145107789044 8.832706820056377 12.11702849521394 0 0 0
551 1 3 -1.2 5.729155187977817 2.7424803905588524 12.11702868734758 0 0 0
554 1 3 -1.2 5.729155490552811 8.83270676691594 12.117028420502361 0 0 0
569 1 3 -1.2 3.3559345182974902 3.3477456014956717 13.992296205656944 0 0 0
596 1 3 -1.2 3.3559345183029183 5.787593398519626 13.992296205650016 0 0 0
623 1 3 -1.2 0.9827145107777793 0.30263217994806074 12.117028495211844 0 0 0
626 1 3 -1.2 0.9827141198276699 6.392858650613059 12.117028749156171 0 0 0
632 1 3 -1.2 5.729155490550849 0.30263223308950715 12.117028420499556 0 0 0
635 1 3 -1.2 5.729155187973983 6.392858609452013 12.117028687342914 0 0 0
676 1 4 3.0 4.344825603818717 4.567669499985487 9.461930074178674 0 0 0
704 1 4 3.0 0.4016158477300661 1.522556080960838 11.425529281753745 0 0 0
707 1 4 3.0 0.4016158477410059 7.612782919021917 11.42552928175566 0 0 0
713 1 4 3.0 5.148056589633411 1.5225559337826529 11.425529693071928 0 0 0
716 1 4 3.0 5.148056589639548 7.612783066200013 11.425529693073333 0 0 0
731 1 4 3.0 2.7748367758852277 4.567669499983744 14.683794907664723 0 0 0
146 1 2 0.6 7.119661462671009 9.84587334563776e-09 10.443730001135357 0 0 0
110 1 2 0.6 9.11876188165538e-13 1.137550409644453e-12 15.665594999999486 0 0 0
122 1 2 0.6 4.7464407211495505 6.090226674342936 15.665594898704192 0 0 0
200 1 2 0.6 4.746440721149465 3.045112325655995 15.665594898703823 0 0 0
194 1 2 0.6 1.0849237600819588e-12 9.135338999998948 15.665594999999675 0 0 0
749 1 4 3.0 12.267716811119353 4.567669499978852 14.683795012950737 0 0 0
740 1 4 3.0 7.52127662397503 4.5676694999809255 14.683795059798454 0 0 0
725 1 4 3.0 9.894496736121841 7.612783086234785 11.425529707043546 0 0 0
185 1 2 0.6 11.866102492466903 9.135338993844785 10.44372998085188 0 0 0
722 1 4 3.0 9.894496736122214 1.522555913746102 11.42552970703978 0 0 0
694 1 4 3.0 13.837708449127229 4.567669499983059 9.461929780725441 0 0 0
685 1 4 3.0 9.091266224177225 4.5676694999827285 9.46193017566127 0 0 0
47 1 1 1.2 9.658246148955197 4.5676694999981615 12.750769071496032 0 0 0
64 1 1 1.2 9.327517699960596 1.5225551949648237 8.136690663848329 0 0 0
67 1 1 1.2 9.327517699960328 7.612783805033381 8.136690663848189 0 0 0
73 1 1 1.2 14.073958743897128 1.522555199424019 8.136690616040458 0 0 0
76 1 1 1.2 14.073958743897391 7.612783800574396 8.136690616040024 0 0 0
92 1 1 1.2 7.28502574316217 1.5225551854790278 13.358555617574213 0 0 0
95 1 1 1.2 7.285025743161935 7.612783814519269 13.358555617574078 0 0 0
101 1 1 1.2 12.03146670547674 1.522555149477441 13.358555662154913 0 0 0
104 1 1 1.2 12.031466705477005 7.612783850520731 13.358555662155055 0 0 0
149 1 2 0.6 7.119661798180425 6.090226685564579 10.443729912482537 0 0 0
155 1 2 0.6 11.866102492466837 6.155121858863132e-09 10.443729980851924 0 0 0
158 1 2 0.6 11.866102789877564 6.09022667968463 10.44372986873503 0 0 0
173 1 2 0.6 7.119661798180614 3.0451123144342565 10.443729912482327 0 0 0
182 1 2 0.6 11.866102789877656 3.045112320314031 10.443729868734845 0 0 0
262 1 3 -1.2 10.59860842321117 4.567669500001803 9.440378298966195 0 0 0
281 1 3 -1.2 8.387156603546869 1.5225568496905537 11.447081320932813 0 0 0
284 1 3 -1.2 8.387156603547725 7.612782150311224 11.447081320932787 0 0 0
290 1 3 -1.2 13.133596963505704 1.522556854053286 11.447081423498469 0 0 0
293 1 3 -1.2 13.133596963498835 7.612782145948586 11.447081423498618 0 0 0
317 1 3 -1.2 10.760377052325563 4.5676695000019 14.66224333791988 0 0 0
343 1 3 -1.2 10.419072308328492 1.5225570956606762 10.000776485987824 0 0 0
346 1 3 -1.2 10.419072308329111 7.612781904341209 10.000776485985737 0 0 0
398 1 3 -1.2 10.939912467884966 1.522557130477033 15.222641735563922 0 0 0
401 1 3 -1.2 10.939912467883728 7.6127818695248 15.222641735560211 0 0 0
416 1 3 -1.2 8.56669204937951 4.567669500001686 10.886682872087546 0 0 0
425 1 3 -1.2 13.313132804685532 4.5676695000017515 10.886683298812011 0 0 0
469 1 3 -1.2 8.510167888385814 5.787593521639931 8.770431071466712 0 0 0
478 1 3 -1.2 13.256608699841411 5.787593594452008 8.770431081603018 0 0 0
496 1 3 -1.2 8.51016788839149 3.3477454783762246 8.770431071473963 0 0 0
505 1 3 -1.2 13.256608699847233 3.347745405563856 8.770431081609996 0 0 0
560 1 3 -1.2 10.47559629957273 2.7424805020070817 12.117028737763757 0 0 0
563 1 3 -1.2 10.475596647516907 8.832706829112084 12.117028425377834 0 0 0
578 1 3 -1.2 8.102375692586131 3.3477454290625017 13.992296033304129 0 0 0
587 1 3 -1.2 12.848816832278969 3.3477453252309552 13.99229601757242 0 0 0
605 1 3 -1.2 8.102375692592753 5.787593570955481 13.992296033296059 0 0 0
614 1 3 -1.2 12.848816832284896 5.78759367478608 13.992296017564668 0 0 0
641 1 3 -1.2 10.475596647514067 0.3026321708944957 12.11702842537457 0 0 0
644 1 3 -1.2 10.475596299540944 6.392858498011588 12.117028737743034 0 0 0
113 1 2 0.6 14.239322714212669 6.090226674822365 15.6655948825278 -1 0 0
191 1 2 0.6 14.239322714212488 3.0451123251764645 15.665594882527492 -1 0 0
131 1 2 0.6 9.492881688386488 6.090226674160643 15.665594857314957 0 0 0
209 1 2 0.6 9.4928816883864 3.0451123258379416 15.665594857314701 0 0 0
2 1 1 1.2 2.2078563397975657 4.567669499998602 17.9726340433036 0 0 0
11 1 1 1.2 6.954297290359967 4.567669499998384 17.97263406843431 0 0 0
30 1 1 1.2 0.16536417801201786 4.567669499998868 23.194499120346876 0 0 0
39 1 1 1.2 4.91180525524383 4.567669499999224 23.19449910084015 0 0 0
56 1 1 1.2 4.581076810360394 1.5225551775743358 18.58042060290894 0 0 0
59 1 1 1.2 4.581076810360267 7.61278382242431 18.58042060290915 0 0 0
141 1 2 0.6 2.3732208133943034 6.0902266825058335 20.887459892304236 0 0 0
165 1 2 0.6 2.373220813394321 3.0451123174933 20.88745989230389 0 0 0
218 1 3 -1.2 3.478945640794605 1.5225568584393478 16.668946379411935 0 0 0
221 1 3 -1.2 3.478945640796902 7.612782141562049 16.668946379411448 0 0 0
245 1 3 -1.2 1.1057259806924382 4.56766950000143 19.884108272309085 0 0 0
254 1 3 -1.2 5.852166532720495 4.567669500001261 19.884108325334573 0 0 0
273 1 3 -1.2 3.640714871661336 1.522556831700325 21.890811372814202 0 0 0
276 1 3 -1.2 3.640714871659054 7.612782168300711 21.89081137281341 0 0 0
326 1 3 -1.2 0.9261902253087538 1.5225571138479728 20.44450642899695 0 0 0
329 1 3 -1.2 0.9261902253087118 7.61278188615333 20.444506428994085 0 0 0
335 1 3 -1.2 5.672631110071065 1.522557060557632 20.444506679675325 0 0 0
338 1 3 -1.2 5.672631110072571 7.612781939443446 20.444506679669495 0 0 0
353 1 3 -1.2 3.299410416137787 4.567669499994248 16.10854796481499 0 0 0
408 1 3 -1.2 3.8202508291529673 4.567669500001104 21.330413130569816 0 0 0
434 1 3 -1.2 1.3905057708617945 0.30263204434662466 17.338893531685198 0 0 0
437 1 3 -1.2 1.3905061322658858 6.392858425213985 17.33889374407523 0 0 0
443 1 3 -1.2 6.136946949907241 0.3026321946945519 17.33889343477463 0 0 0
446 1 3 -1.2 6.136947310679108 6.392858589441679 17.338893709905793 0 0 0
461 1 3 -1.2 3.7637266651749477 5.787593683670575 19.214161015587262 0 0 0
488 1 3 -1.2 3.7637266651793198 3.3477453163415936 19.214161015592815 0 0 0
515 1 3 -1.2 1.3905061322626662 2.742480574795362 17.33889374407958 0 0 0
518 1 3 -1.2 1.3905057708606452 8.832706955656066 17.33889353168609 0 0 0
524 1 3 -1.2 6.136947310672599 2.7424804105734224 17.33889370991341 0 0 0
527 1 3 -1.2 6.136946949907337 8.832706805308057 17.338893434775134 0 0 0
543 1 3 -1.2 0.9827141789945768 2.7424803724502103 22.560758644086334 0 0 0
546 1 3 -1.2 0.982714526539051 8.832706736017963 22.56075834958558 0 0 0
552 1 3 -1.2 5.729155112702743 2.7424802874267606 22.560758681840184 0 0 0
555 1 3 -1.2 5.729155501404059 8.832706870060344 22.560758491429837 0 0 0
624 1 3 -1.2 0.9827145265390642 0.3026322639846221 22.56075834958494 0 0 0
627 1 3 -1.2 0.9827141789899491 6.392858627560801 22.560758644080618 0 0 0
633 1 3 -1.2 5.72915550140392 0.3026321299407104 22.560758491430366 0 0 0
636 1 3 -1.2 5.7291551126993765 6.392858712581445 22.560758681835562 0 0 0
650 1 4 3.0 1.9716061298329808 1.5225559783801061 16.647394510317127 0 0 0
653 1 4 3.0 1.9716061298291352 7.612783021606979 16.64739451032364 0 0 0
659 1 4 3.0 6.718046160776374 1.5225559717702202 16.64739463797505 0 0 0
662 1 4 3.0 6.718046160756003 7.6127830282108855 16.647394637982153 0 0 0
677 1 4 3.0 4.344826589906606 4.5676694999871605 19.905660066231437 0 0 0
705 1 4 3.0 0.40161539923246015 1.5225559135338538 21.869259936905724 0 0 0
708 1 4 3.0 0.401615399242335 7.612783086451545 21.869259936913657 0 0 0
714 1 4 3.0 5.14805694269748 1.5225561302393193 21.869259562835893 0 0 0
717 1 4 3.0 5.148056942701302 7.612782869750621 21.86925956284667 0 0 0
212 1 2 0.6 9.492881982389735 9.135338965723177 15.665595015787453 0 0 0
20 1 1 1.2 11.70073826506514 4.5676694999983125 17.972634039911878 0 0 0
48 1 1 1.2 9.658246102969763 4.56766949999911 23.194499013128368 0 0 0
65 1 1 1.2 9.327517741110137 1.5225551867750162 18.580420588111313 0 0 0
68 1 1 1.2 9.327517741109483 7.6127838132231815 18.58042058811185 0 0 0
74 1 1 1.2 14.073958745244541 1.522555194412821 18.580420644742514 0 0 0
77 1 1 1.2 14.073958745244905 7.612783805585687 18.580420644742624 0 0 0
128 1 2 0.6 9.492881982389827 3.42768875779459e-08 15.665595015787396 0 0 0
150 1 2 0.6 7.1196618061217 6.090226682276363 20.88745985545159 0 0 0
159 1 2 0.6 11.866102796801503 6.090226673833242 20.887459870003834 0 0 0
174 1 2 0.6 7.119661806121888 3.0451123177228183 20.887459855451148 0 0 0
183 1 2 0.6 11.866102796801604 3.0451123261655493 20.8874598700035 0 0 0
227 1 3 -1.2 8.225387220430246 1.5225568661582036 16.66894636212748 0 0 0
230 1 3 -1.2 8.22538722044361 7.61278213384359 16.6689463621272 0 0 0
236 1 3 -1.2 12.9718290110013 1.5225568648584349 16.668946385522602 0 0 0
239 1 3 -1.2 12.971829010998272 7.612782135143279 16.66894638552217 0 0 0
263 1 3 -1.2 10.598608625440646 4.567669500001648 19.88410828219435 0 0 0
282 1 3 -1.2 8.38715656285094 1.522556859606905 21.89081136520669 0 0 0
285 1 3 -1.2 8.387156562860289 7.612782140394229 21.890811365205376 0 0 0
291 1 3 -1.2 13.13359716572481 1.522556855321278 21.890811330169534 0 0 0
294 1 3 -1.2 13.13359716571892 7.6127821446803114 21.89081133016895 0 0 0
344 1 3 -1.2 10.419072266519153 1.5225570953882044 20.444506584550282 0 0 0
347 1 3 -1.2 10.419072266522775 7.612781904613431 20.444506584540985 0 0 0
362 1 3 -1.2 8.04585157997982 4.567669500001843 16.108548018071325 0 0 0
371 1 3 -1.2 12.79229271280636 4.567669500001683 16.10854820880945 0 0 0
417 1 3 -1.2 8.566692047646207 4.567669500001176 21.330413048480523 0 0 0
426 1 3 -1.2 13.313132947052527 4.567669500001453 21.330412905635118 0 0 0
452 1 3 -1.2 10.88338814121489 0.30263238073124893 17.338893363394657 0 0 0
455 1 3 -1.2 10.883388446765153 6.3928586447623115 17.338893692227426 0 0 0
470 1 3 -1.2 8.510167936153422 5.7875934260031565 19.21416113120516 0 0 0
479 1 3 -1.2 13.256608802311524 5.787593595224113 19.21416102091089 0 0 0
497 1 3 -1.2 8.510167936158416 3.3477455740118054 19.214161131212233 0 0 0
506 1 3 -1.2 13.256608802316833 3.347745404790491 19.21416102091744 0 0 0
533 1 3 -1.2 10.883388446761742 2.742480355248636 17.33889369223231 0 0 0
536 1 3 -1.2 10.88338814121213 8.8327066192753 17.338893363397712 0 0 0
561 1 3 -1.2 10.47559630035604 2.7424805664511154 22.560758813653216 0 0 0
564 1 3 -1.2 10.475596618806652 8.83270686467775 22.560758485573505 0 0 0
642 1 3 -1.2 10.475596618803307 0.3026321353273328 22.560758485572247 0 0 0
645 1 3 -1.2 10.475596300354082 6.3928584335567855 22.56075881364893 0 0 0
668 1 4 3.0 11.464486067198944 1.5225558188351236 16.647394608017585 0 0 0
671 1 4 3.0 11.464486067202305 7.612783181146341 16.647394608023276 0 0 0
686 1 4 3.0 9.091265909214677 4.567669499984239 19.90565981974532 0 0 0
695 1 4 3.0 13.83770782085544 4.567669499984563 19.905660295304493 0 0 0
723 1 4 3.0 9.89449685112522 1.522555830856714 21.8692594699185 0 0 0
726 1 4 3.0 9.894496851111908 7.612783169129282 21.869259469930746 0 0 0
204 1 2 0.6 4.746440985964117 9.1353389675305 26.109324985895608 0 0 0
195 1 2 0.6 3.7331490570113964e-08 9.135338990155265 26.109325001139307 0 0 0
3 1 1 1.2 2.207856300613729 4.567669499999327 28.416364037097445 0 0 0
12 1 1 1.2 6.954297240335769 4.567669499999411 28.41636400801159 0 0 0
57 1 1 1.2 4.581076694310998 1.5225552002098381 29.024150604911277 0 0 0
60 1 1 1.2 4.58107669431098 7.612783799789615 29.024150604911004 0 0 0
84 1 1 1.2 2.5385847156349524 1.5225552082349723 23.802285623058708 0 0 0
87 1 1 1.2 2.538584715635378 7.612783791764005 23.802285623058978 0 0 0
111 1 2 0.6 3.733150057721494e-08 9.844602028490706e-09 26.109325001138856 0 0 0
120 1 2 0.6 4.746440985964005 3.2469623630455365e-08 26.10932498589556 0 0 0
123 1 2 0.6 4.746440696084306 6.090226660493856 26.109324847943913 0 0 0
201 1 2 0.6 4.746440696084217 3.0451123395057627 26.109324847943846 0 0 0
219 1 3 -1.2 3.4789464239423094 1.5225568460620942 27.112676350478736 0 0 0
222 1 3 -1.2 3.478946423943016 7.612782153938423 27.11267635047862 0 0 0
246 1 3 -1.2 1.1057259852995258 4.567669500000696 30.32783833311722 0 0 0
255 1 3 -1.2 5.852167677039407 4.567669500000678 30.327838333823983 0 0 0
300 1 3 -1.2 1.2674944099188534 4.567669500000792 25.105973273461963 0 0 0
309 1 3 -1.2 6.013935835455184 4.56766950000051 25.105973363392998 0 0 0
327 1 3 -1.2 0.926190194392329 1.5225570923413885 30.888236590307578 0 0 0
330 1 3 -1.2 0.9261901943917723 7.612781907659406 30.888236590308658 0 0 0
336 1 3 -1.2 5.672631325293004 1.522557054376 30.88823647434027 0 0 0
339 1 3 -1.2 5.672631325292206 7.6127819456248265 30.88823647434259 0 0 0
354 1 3 -1.2 3.2994105595611756 4.567669500000638 26.55227799572199 0 0 0
381 1 3 -1.2 1.44703030022077 1.5225570793399397 25.666371528451542 0 0 0
384 1 3 -1.2 1.447030300220019 7.612781920660972 25.66637152844979 0 0 0
390 1 3 -1.2 6.193471398011376 1.522557081655912 25.66637183043277 0 0 0
393 1 3 -1.2 6.193471398012175 7.612781918344441 25.666371830434414 0 0 0
435 1 3 -1.2 1.390506009449612 0.30263223310264553 27.782623420485628 0 0 0
438 1 3 -1.2 1.3905063120234937 6.392858609455533 27.782623687332826 0 0 0
444 1 3 -1.2 6.136946989243893 0.30263217997522385 27.782623495192084 0 0 0
447 1 3 -1.2 6.1369473801897145 6.392858650631904 27.78262374914042 0 0 0
462 1 3 -1.2 3.7637269817112062 5.787593398499186 29.657891205659467 0 0 0
489 1 3 -1.2 3.763726981713274 3.3477456015066034 29.657891205661983 0 0 0
516 1 3 -1.2 1.3905063120220595 2.742480390549051 27.78262368733498 0 0 0
519 1 3 -1.2 1.3905060094487902 8.832706766898632 27.782623420485898 0 0 0
525 1 3 -1.2 6.136947380189098 2.742480349369974 27.7826237491409 0 0 0
528 1 3 -1.2 6.136946989243777 8.832706820025349 27.782623495192702 0 0 0
570 1 3 -1.2 3.3559346749817602 3.347745436478942 24.436026072985936 0 0 0
597 1 3 -1.2 3.3559346749836605 5.787593563526999 24.436026072983296 0 0 0
651 1 4 3.0 1.9716049103937654 1.522555933778757 27.091124693144508 0 0 0
654 1 4 3.0 1.9716049103927964 7.612783066214891 27.091124693147947 0 0 0
660 1 4 3.0 6.718045652164166 1.522556080963189 27.091124281808586 0 0 0
663 1 4 3.0 6.718045652160591 7.612782919034179 27.09112428180679 0 0 0
678 1 4 3.0 4.344824723834608 4.567669499674832 30.349389907598443 0 0 0
732 1 4 3.0 2.7748358962243085 4.567669499993614 25.127525074250276 0 0 0
139 1 2 0.6 2.3732207788505795 6.090226674343305 31.33118989870353 0 0 -1
163 1 2 0.6 2.3732207788506265 3.0451123256561585 31.331189898703506 0 0 -1
213 1 2 0.6 9.492882007531811 9.135338993844135 26.10932498085573 0 0 0
750 1 4 3.0 12.267718275869429 4.567669499991639 25.127525175736235 0 0 0
741 1 4 3.0 7.521276050792347 4.567669499994989 25.12752478078193 0 0 0
672 1 4 3.0 11.464487763935416 7.612783086226532 27.0911247071085 0 0 0
669 1 4 3.0 11.464487763943898 1.5225559137695661 27.091124707107273 0 0 0
696 1 4 3.0 13.837707876116237 4.567669499993197 30.349390059814667 0 0 0
687 1 4 3.0 9.091267688890513 4.5676694999927365 30.34939001298417 0 0 0
615 1 3 -1.2 12.8488166116109 5.787593521644494 24.436026071455718 0 0 0
114 1 2 0.6 14.239322701821278 6.090226685564277 26.10932491248657 -1 0 0
192 1 2 0.6 14.239322701821205 3.045112314435087 26.109324912486404 -1 0 0
21 1 1 1.2 11.700738351048686 4.567669499999289 28.41636407150052 0 0 0
66 1 1 1.2 9.327517794521548 1.5225551494791507 29.024150662160924 0 0 0
69 1 1 1.2 9.32751779452147 7.612783850520313 29.02415066216061 0 0 0
75 1 1 1.2 14.073958756844444 1.5225551854793344 29.024150617578055 0 0 0
78 1 1 1.2 14.073958756844473 7.61278381452003 29.024150617578105 0 0 0
93 1 1 1.2 7.285025756096499 1.5225551994248334 23.802285616045914 0 0 0
96 1 1 1.2 7.285025756096225 7.612783800574528 23.8022856160463 0 0 0
102 1 1 1.2 12.031466800044042 1.5225551949663563 23.802285663854448 0 0 0
105 1 1 1.2 12.031466800043548 7.612783805032691 23.80228566385525 0 0 0
129 1 2 0.6 9.492882007532 6.155988738555656e-09 26.10932498085559 0 0 0
132 1 2 0.6 9.492881710121566 6.090226679684168 26.109324868738405 0 0 0
210 1 2 0.6 9.492881710121624 3.0451123203154338 26.109324868738305 0 0 0
228 1 3 -1.2 8.225387536561056 1.522556854051921 27.112676423492772 0 0 0
231 1 3 -1.2 8.22538753656346 7.6127821459484375 27.112676423492964 0 0 0
237 1 3 -1.2 12.97182789640774 1.5225568496892223 27.11267632092455 0 0 0
240 1 3 -1.2 12.971827896413041 7.612782150311426 27.112676320924354 0 0 0
264 1 3 -1.2 10.598607447664145 4.567669500000728 30.32783833791594 0 0 0
318 1 3 -1.2 10.760376076760341 4.567669500000769 25.105973298957778 0 0 0
345 1 3 -1.2 10.419072032123276 1.5225571304758765 30.888236735536474 0 0 0
348 1 3 -1.2 10.41907203212246 7.612781869525015 30.88823673553848 0 0 0
363 1 3 -1.2 8.04585169531682 4.567669500000552 26.55227829879145 0 0 0
372 1 3 -1.2 12.792292450599968 4.56766950000084 26.552277872035415 0 0 0
399 1 3 -1.2 10.939912191651436 1.5225570956579657 25.6663714859374 0 0 0
402 1 3 -1.2 10.939912191652741 7.612781904342438 25.66637148593799 0 0 0
453 1 3 -1.2 10.88338785247825 0.3026321708879455 27.78262342537022 0 0 0
456 1 3 -1.2 10.883388200457835 6.392858498020011 27.782623737731978 0 0 0
471 1 3 -1.2 8.510167667714601 5.787593674789945 29.657891017557724 0 0 0
480 1 3 -1.2 13.256608807394215 5.787593570967865 29.657891033285875 0 0 0
498 1 3 -1.2 8.510167667717045 3.347745325216793 29.657891017560697 0 0 0
507 1 3 -1.2 13.256608807396455 3.3477454290384987 29.65789103328871 0 0 0
534 1 3 -1.2 10.88338820045611 2.7424805019839256 27.782623737733715 0 0 0
537 1 3 -1.2 10.883387852478998 8.832706829111663 27.782623425370165 0 0 0
579 1 3 -1.2 8.102375800172005 3.347745405534106 24.436026081588746 0 0 0
588 1 3 -1.2 12.848816611608097 3.3477454783635068 24.436026071459334 0 0 0
606 1 3 -1.2 8.102375800173787 5.787593594470619 24.436026081586675 0 0 0
148 1 2 0.6 7.119661785786185 6.090226674822794 31.331189882528577 0 0 -1
157 1 2 0.6 11.866102811614759 6.090226674160892 31.331189857316307 0 0 -1
172 1 2 0.6 7.119661785786266 3.0451123251766505 31.33118988252857 0 0 -1
181 1 2 0.6 11.866102811614814 3.045112325838543 31.33118985731627 0 0 -1
4 1 1 1.2 2.2078561999654536 10.657894194965474 7.528904336145615 0 0 0
7 1 1 1.2 2.2078561999653927 16.74812280503583 7.5289043361461 0 0 0
13 1 1 1.2 6.9542972438951915 10.657894199424662 7.528904383954918 0 0 0
16 1 1 1.2 6.9542972438955655 16.74812280057686 7.528904383955086 0 0 0
31 1 1 1.2 0.1653642431713593 10.657894185477922 2.3070393824191324 0 0 0
34 1 1 1.2 0.16536424317123188 16.74812281452302 2.307039382419316 0 0 0
40 1 1 1.2 4.911805205471712 10.657894149476439 2.3070393378424217 0 0 0
43 1 1 1.2 4.911805205471842 16.748122850524492 2.30703933784279 0 0 0
88 1 1 1.2 2.5385846489598767 13.703008500000989 2.9148259284953633 0 0 0
115 1 2 0.6 2.9818219556828924e-07 12.18045131443529 5.221865087514647 0 0 0
124 1 2 0.6 4.746441289878004 12.180451320314814 5.2218651312616435 0 0 0
142 1 2 0.6 2.3732201883878252 12.180451325838469 1.4268254871371894e-07 0 0 0
169 1 2 0.6 2.373220188387791 15.22556567416212 1.4268282755517998e-07 0 0 0
196 1 2 0.6 2.9818218293127446e-07 15.225565685565575 5.22186508751509 0 0 0
202 1 2 0.6 4.7464409924672974 9.135339006154274 5.221865019143977 0 0 0
205 1 2 0.6 4.7464412898781765 15.22556567968613 5.221865131261996 0 0 0
223 1 3 -1.2 3.4789469231735386 13.703008499998537 6.225216701040145 0 0 0
277 1 3 -1.2 3.6407155523893002 13.70300849999899 1.0033516620834473 0 0 0
301 1 3 -1.2 1.267495103474936 10.657895849691116 4.218513679074761 0 0 0
304 1 3 -1.2 1.2674951034724475 16.748121150307945 4.218513679073961 0 0 0
310 1 3 -1.2 6.013935463547297 10.65789585405401 4.218513576507057 0 0 0
313 1 3 -1.2 6.013935463539244 16.748121145944996 4.218513576506028 0 0 0
355 1 3 -1.2 3.299410808327629 10.657896095660933 5.664818514040611 0 0 0
358 1 3 -1.2 3.299410808326238 16.748120904338084 5.664818514035434 0 0 0