LAMMPS data file. msi2lmp v3.9.9 / 05 Nov 2018 / CGCMM for Li/POSCAR_333_fixed

   2592 atoms
      0 bonds
      0 angles
      0 dihedrals
      0 impropers

   5 atom types

    -4.595767309    30.235232691 xlo xhi
    -0.418957589    14.663307831 ylo yhi
    -0.595887330    42.308212670 zlo zhi
    -8.707750000     0.000000000     0.000000000 xy xz yz

Masses

   1   6.940000 # Li
   2  58.690000 # ni2c
   3  15.999400 # o
   4  58.933200 # co2c
   5  54.938050 # mn4c

Atoms # full

      1      1   1  1.000000     1.451291931     0.837902078     4.767117964 # Li
      2      1   1  1.000000     1.451291931     0.837902078    19.068486631 # Li
      3      1   1  1.000000     1.451291931     0.837902078    33.369855298 # Li
      4      1   1  1.000000    -1.451289069     5.865319843     4.767117964 # Li
      5      1   1  1.000000    -1.451289069     5.865319843    19.068486631 # Li
      6      1   1  1.000000    -1.451289069     5.865319843    33.369855298 # Li
      7      1   1  1.000000    -4.353870069    10.892737608     4.767117964 # Li
      8      1   1  1.000000    -4.353870069    10.892737608    19.068486631 # Li
      9      1   1  1.000000    -4.353870069    10.892737608    33.369855298 # Li
     10      1   1  1.000000    13.061615931     0.837902078     4.767117964 # Li
     11      1   1  1.000000    13.061615931     0.837902078    19.068486631 # Li
     12      1   1  1.000000    13.061615931     0.837902078    33.369855298 # Li
     13      1   1  1.000000    10.159034931     5.865319843     4.767117964 # Li
     14      1   1  1.000000    10.159034931     5.865319843    19.068486631 # Li
     15      1   1  1.000000    10.159034931     5.865319843    33.369855298 # Li
     16      1   1  1.000000     7.256453931    10.892737608     4.767117964 # Li
     17      1   1  1.000000     7.256453931    10.892737608    19.068486631 # Li
     18      1   1  1.000000     7.256453931    10.892737608    33.369855298 # Li
     19      1   1  1.000000    24.671939931     0.837902078     4.767117964 # Li
     20      1   1  1.000000    24.671939931     0.837902078    19.068486631 # Li
     21      1   1  1.000000    24.671939931     0.837902078    33.369855298 # Li
     22      1   1  1.000000    21.769358931     5.865319843     4.767117964 # Li
     23      1   1  1.000000    21.769358931     5.865319843    19.068486631 # Li
     24      1   1  1.000000    21.769358931     5.865319843    33.369855298 # Li
     25      1   1  1.000000    18.866777931    10.892737608     4.767117964 # Li
     26      1   1  1.000000    18.866777931    10.892737608    19.068486631 # Li
     27      1   1  1.000000    18.866777931    10.892737608    33.369855298 # Li
     28      1   1  1.000000     0.000001428     3.351610925     4.767117964 # Li
     29      1   1  1.000000     0.000001428     3.351610925    19.068486631 # Li
     30      1   1  1.000000     0.000001428     3.351610925    33.369855298 # Li
     31      1   1  1.000000    -2.902579572     8.379028690     4.767117964 # Li
     32      1   1  1.000000    -2.902579572     8.379028690    19.068486631 # Li
     33      1   1  1.000000    -2.902579572     8.379028690    33.369855298 # Li
     34      1   1  1.000000    -5.805160572    13.406446455     4.767117964 # Li
     35      1   1  1.000000    -5.805160572    13.406446455    19.068486631 # Li
     36      1   1  1.000000    -5.805160572    13.406446455    33.369855298 # Li
     37      1   1  1.000000    11.610325428     3.351610925     4.767117964 # Li
     38      1   1  1.000000    11.610325428     3.351610925    19.068486631 # Li
     39      1   1  1.000000    11.610325428     3.351610925    33.369855298 # Li
     40      1   1  1.000000     8.707744428     8.379028690     4.767117964 # Li
     41      1   1  1.000000     8.707744428     8.379028690    19.068486631 # Li
     42      1   1  1.000000     8.707744428     8.379028690    33.369855298 # Li
     43      1   1  1.000000     5.805163428    13.406446455     4.767117964 # Li
     44      1   1  1.000000     5.805163428    13.406446455    19.068486631 # Li
     45      1   1  1.000000     5.805163428    13.406446455    33.369855298 # Li
     46      1   1  1.000000    23.220649428     3.351610925     4.767117964 # Li
     47      1   1  1.000000    23.220649428     3.351610925    19.068486631 # Li
     48      1   1  1.000000    23.220649428     3.351610925    33.369855298 # Li
     49      1   1  1.000000    20.318068428     8.379028690     4.767117964 # Li
     50      1   1  1.000000    20.318068428     8.379028690    19.068486631 # Li
     51      1   1  1.000000    20.318068428     8.379028690    33.369855298 # Li
     52      1   1  1.000000    17.415487428    13.406446455     4.767117964 # Li
     53      1   1  1.000000    17.415487428    13.406446455    19.068486631 # Li
     54      1   1  1.000000    17.415487428    13.406446455    33.369855298 # Li
     55      1   1  1.000000     4.353873291     0.837902078     4.767117964 # Li
     56      1   1  1.000000     4.353873291     0.837902078    19.068486631 # Li
     57      1   1  1.000000     4.353873291     0.837902078    33.369855298 # Li
     58      1   1  1.000000     1.451292291     5.865319843     4.767117964 # Li
     59      1   1  1.000000     1.451292291     5.865319843    19.068486631 # Li
     60      1   1  1.000000     1.451292291     5.865319843    33.369855298 # Li
     61      1   1  1.000000    -1.451288709    10.892737608     4.767117964 # Li
     62      1   1  1.000000    -1.451288709    10.892737608    19.068486631 # Li
     63      1   1  1.000000    -1.451288709    10.892737608    33.369855298 # Li
     64      1   1  1.000000    15.964197291     0.837902078     4.767117964 # Li
     65      1   1  1.000000    15.964197291     0.837902078    19.068486631 # Li
     66      1   1  1.000000    15.964197291     0.837902078    33.369855298 # Li
     67      1   1  1.000000    13.061616291     5.865319843     4.767117964 # Li
     68      1   1  1.000000    13.061616291     5.865319843    19.068486631 # Li
     69      1   1  1.000000    13.061616291     5.865319843    33.369855298 # Li
     70      1   1  1.000000    10.159035291    10.892737608     4.767117964 # Li
     71      1   1  1.000000    10.159035291    10.892737608    19.068486631 # Li
     72      1   1  1.000000    10.159035291    10.892737608    33.369855298 # Li
     73      1   1  1.000000    27.574521291     0.837902078     4.767117964 # Li
     74      1   1  1.000000    27.574521291     0.837902078    19.068486631 # Li
     75      1   1  1.000000    27.574521291     0.837902078    33.369855298 # Li
     76      1   1  1.000000    24.671940291     5.865319843     4.767117964 # Li
     77      1   1  1.000000    24.671940291     5.865319843    19.068486631 # Li
     78      1   1  1.000000    24.671940291     5.865319843    33.369855298 # Li
     79      1   1  1.000000    21.769359291    10.892737608     4.767117964 # Li
     80      1   1  1.000000    21.769359291    10.892737608    19.068486631 # Li
     81      1   1  1.000000    21.769359291    10.892737608    33.369855298 # Li
     82      1   1  1.000000     2.902582672     3.351610925     4.767117964 # Li
     83      1   1  1.000000     2.902582672     3.351610925    19.068486631 # Li
     84      1   1  1.000000     2.902582672     3.351610925    33.369855298 # Li
     85      1   1  1.000000     0.000001672     8.379028690     4.767117964 # Li
     86      1   1  1.000000     0.000001672     8.379028690    19.068486631 # Li
     87      1   1  1.000000     0.000001672     8.379028690    33.369855298 # Li
     88      1   1  1.000000    -2.902579328    13.406446455     4.767117964 # Li
     89      1   1  1.000000    -2.902579328    13.406446455    19.068486631 # Li
     90      1   1  1.000000    -2.902579328    13.406446455    33.369855298 # Li
     91      1   1  1.000000    14.512906672     3.351610925     4.767117964 # Li
     92      1   1  1.000000    14.512906672     3.351610925    19.068486631 # Li
     93      1   1  1.000000    14.512906672     3.351610925    33.369855298 # Li
     94      1   1  1.000000    11.610325672     8.379028690     4.767117964 # Li
     95      1   1  1.000000    11.610325672     8.379028690    19.068486631 # Li
     96      1   1  1.000000    11.610325672     8.379028690    33.369855298 # Li
     97      1   1  1.000000     8.707744672    13.406446455     4.767117964 # Li
     98      1   1  1.000000     8.707744672    13.406446455    19.068486631 # Li
     99      1   1  1.000000     8.707744672    13.406446455    33.369855298 # Li
    100      1   1  1.000000    26.123230672     3.351610925     4.767117964 # Li
    101      1   1  1.000000    26.123230672     3.351610925    19.068486631 # Li
    102      1   1  1.000000    26.123230672     3.351610925    33.369855298 # Li
    103      1   1  1.000000    23.220649672     8.379028690     4.767117964 # Li
    104      1   1  1.000000    23.220649672     8.379028690    19.068486631 # Li
    105      1   1  1.000000    23.220649672     8.379028690    33.369855298 # Li
    106      1   1  1.000000    20.318068672    13.406446455     4.767117964 # Li
    107      1   1  1.000000    20.318068672    13.406446455    19.068486631 # Li
    108      1   1  1.000000    20.318068672    13.406446455    33.369855298 # Li
    109      1   1  1.000000     7.256453571     0.837902078     4.767117964 # Li
    110      1   1  1.000000     7.256453571     0.837902078    19.068486631 # Li
    111      1   1  1.000000     7.256453571     0.837902078    33.369855298 # Li
    112      1   1  1.000000     4.353872571     5.865319843     4.767117964 # Li
    113      1   1  1.000000     4.353872571     5.865319843    19.068486631 # Li
    114      1   1  1.000000     4.353872571     5.865319843    33.369855298 # Li
    115      1   1  1.000000     1.451291571    10.892737608     4.767117964 # Li
    116      1   1  1.000000     1.451291571    10.892737608    19.068486631 # Li
    117      1   1  1.000000     1.451291571    10.892737608    33.369855298 # Li
    118      1   1  1.000000    18.866777571     0.837902078     4.767117964 # Li
    119      1   1  1.000000    18.866777571     0.837902078    19.068486631 # Li
    120      1   1  1.000000    18.866777571     0.837902078    33.369855298 # Li
    121      1   1  1.000000    15.964196571     5.865319843     4.767117964 # Li
    122      1   1  1.000000    15.964196571     5.865319843    19.068486631 # Li
    123      1   1  1.000000    15.964196571     5.865319843    33.369855298 # Li
    124      1   1  1.000000    13.061615571    10.892737608     4.767117964 # Li
    125      1   1  1.000000    13.061615571    10.892737608    19.068486631 # Li
    126      1   1  1.000000    13.061615571    10.892737608    33.369855298 # Li
    127      1   1  1.000000    -4.353898429     0.837902078     4.767117964 # Li
    128      1   1  1.000000    -4.353898429     0.837902078    19.068486631 # Li
    129      1   1  1.000000    -4.353898429     0.837902078    33.369855298 # Li
    130      1   1  1.000000    -7.256479429     5.865319843     4.767117964 # Li
    131      1   1  1.000000    -7.256479429     5.865319843    19.068486631 # Li
    132      1   1  1.000000    -7.256479429     5.865319843    33.369855298 # Li
    133      1   1  1.000000   -10.159060429    10.892737608     4.767117964 # Li
    134      1   1  1.000000   -10.159060429    10.892737608    19.068486631 # Li
    135      1   1  1.000000   -10.159060429    10.892737608    33.369855298 # Li
    136      1   1  1.000000     5.805163428     3.351610925     4.767117964 # Li
    137      1   1  1.000000     5.805163428     3.351610925    19.068486631 # Li
    138      1   1  1.000000     5.805163428     3.351610925    33.369855298 # Li
    139      1   1  1.000000     2.902582428     8.379028690     4.767117964 # Li
    140      1   1  1.000000     2.902582428     8.379028690    19.068486631 # Li
    141      1   1  1.000000     2.902582428     8.379028690    33.369855298 # Li
    142      1   1  1.000000     0.000001428    13.406446455     4.767117964 # Li
    143      1   1  1.000000     0.000001428    13.406446455    19.068486631 # Li
    144      1   1  1.000000     0.000001428    13.406446455    33.369855298 # Li
    145      1   1  1.000000    17.415487428     3.351610925     4.767117964 # Li
    146      1   1  1.000000    17.415487428     3.351610925    19.068486631 # Li
    147      1   1  1.000000    17.415487428     3.351610925    33.369855298 # Li
    148      1   1  1.000000    14.512906428     8.379028690     4.767117964 # Li
    149      1   1  1.000000    14.512906428     8.379028690    19.068486631 # Li
    150      1   1  1.000000    14.512906428     8.379028690    33.369855298 # Li
    151      1   1  1.000000    11.610325428    13.406446455     4.767117964 # Li
    152      1   1  1.000000    11.610325428    13.406446455    19.068486631 # Li
    153      1   1  1.000000    11.610325428    13.406446455    33.369855298 # Li
    154      1   1  1.000000    -5.805188572     3.351610925     4.767117964 # Li
    155      1   1  1.000000    -5.805188572     3.351610925    19.068486631 # Li
    156      1   1  1.000000    -5.805188572     3.351610925    33.369855298 # Li
    157      1   1  1.000000    -8.707769572     8.379028690     4.767117964 # Li
    158      1   1  1.000000    -8.707769572     8.379028690    19.068486631 # Li
    159      1   1  1.000000    -8.707769572     8.379028690    33.369855298 # Li
    160      1   1  1.000000   -11.610350572    13.406446455     4.767117964 # Li
    161      1   1  1.000000   -11.610350572    13.406446455    19.068486631 # Li
    162      1   1  1.000000   -11.610350572    13.406446455    33.369855298 # Li
    163      1   1  1.000000    10.159034815     0.837902078     4.767117964 # Li
    164      1   1  1.000000    10.159034815     0.837902078    19.068486631 # Li
    165      1   1  1.000000    10.159034815     0.837902078    33.369855298 # Li
    166      1   1  1.000000     7.256453815     5.865319843     4.767117964 # Li
    167      1   1  1.000000     7.256453815     5.865319843    19.068486631 # Li
    168      1   1  1.000000     7.256453815     5.865319843    33.369855298 # Li
    169      1   1  1.000000     4.353872815    10.892737608     4.767117964 # Li
    170      1   1  1.000000     4.353872815    10.892737608    19.068486631 # Li
    171      1   1  1.000000     4.353872815    10.892737608    33.369855298 # Li
    172      1   1  1.000000    21.769358815     0.837902078     4.767117964 # Li
    173      1   1  1.000000    21.769358815     0.837902078    19.068486631 # Li
    174      1   1  1.000000    21.769358815     0.837902078    33.369855298 # Li
    175      1   1  1.000000    18.866777815     5.865319843     4.767117964 # Li
    176      1   1  1.000000    18.866777815     5.865319843    19.068486631 # Li
    177      1   1  1.000000    18.866777815     5.865319843    33.369855298 # Li
    178      1   1  1.000000    15.964196815    10.892737608     4.767117964 # Li
    179      1   1  1.000000    15.964196815    10.892737608    19.068486631 # Li
    180      1   1  1.000000    15.964196815    10.892737608    33.369855298 # Li
    181      1   1  1.000000    -1.451317185     0.837902078     4.767117964 # Li
    182      1   1  1.000000    -1.451317185     0.837902078    19.068486631 # Li
    183      1   1  1.000000    -1.451317185     0.837902078    33.369855298 # Li
    184      1   1  1.000000    -4.353898185     5.865319843     4.767117964 # Li
    185      1   1  1.000000    -4.353898185     5.865319843    19.068486631 # Li
    186      1   1  1.000000    -4.353898185     5.865319843    33.369855298 # Li
    187      1   1  1.000000    -7.256479185    10.892737608     4.767117964 # Li
    188      1   1  1.000000    -7.256479185    10.892737608    19.068486631 # Li
    189      1   1  1.000000    -7.256479185    10.892737608    33.369855298 # Li
    190      1   1  1.000000     8.707743720     3.351610925     4.767117964 # Li
    191      1   1  1.000000     8.707743720     3.351610925    19.068486631 # Li
    192      1   1  1.000000     8.707743720     3.351610925    33.369855298 # Li
    193      1   1  1.000000     5.805162720     8.379028690     4.767117964 # Li
    194      1   1  1.000000     5.805162720     8.379028690    19.068486631 # Li
    195      1   1  1.000000     5.805162720     8.379028690    33.369855298 # Li
    196      1   1  1.000000     2.902581720    13.406446455     4.767117964 # Li
    197      1   1  1.000000     2.902581720    13.406446455    19.068486631 # Li
    198      1   1  1.000000     2.902581720    13.406446455    33.369855298 # Li
    199      1   1  1.000000    20.318067720     3.351610925     4.767117964 # Li
    200      1   1  1.000000    20.318067720     3.351610925    19.068486631 # Li
    201      1   1  1.000000    20.318067720     3.351610925    33.369855298 # Li
    202      1   1  1.000000    17.415486720     8.379028690     4.767117964 # Li
    203      1   1  1.000000    17.415486720     8.379028690    19.068486631 # Li
    204      1   1  1.000000    17.415486720     8.379028690    33.369855298 # Li
    205      1   1  1.000000    14.512905720    13.406446455     4.767117964 # Li
    206      1   1  1.000000    14.512905720    13.406446455    19.068486631 # Li
    207      1   1  1.000000    14.512905720    13.406446455    33.369855298 # Li
    208      1   1  1.000000    -2.902608280     3.351610925     4.767117964 # Li
    209      1   1  1.000000    -2.902608280     3.351610925    19.068486631 # Li
    210      1   1  1.000000    -2.902608280     3.351610925    33.369855298 # Li
    211      1   1  1.000000    -5.805189280     8.379028690     4.767117964 # Li
    212      1   1  1.000000    -5.805189280     8.379028690    19.068486631 # Li
    213      1   1  1.000000    -5.805189280     8.379028690    33.369855298 # Li
    214      1   1  1.000000    -8.707770280    13.406446455     4.767117964 # Li
    215      1   1  1.000000    -8.707770280    13.406446455    19.068486631 # Li
    216      1   1  1.000000    -8.707770280    13.406446455    33.369855298 # Li
    217      1   1  1.000000    -0.000001553     1.675806654     9.534250230 # Li
    218      1   1  1.000000    -0.000001553     1.675806654    23.835618897 # Li
    219      1   1  1.000000    -0.000001553     1.675806654    38.136987564 # Li
    220      1   1  1.000000    -2.902582553     6.703224419     9.534250230 # Li
    221      1   1  1.000000    -2.902582553     6.703224419    23.835618897 # Li
    222      1   1  1.000000    -2.902582553     6.703224419    38.136987564 # Li
    223      1   1  1.000000    -5.805163553    11.730642184     9.534250230 # Li
    224      1   1  1.000000    -5.805163553    11.730642184    23.835618897 # Li
    225      1   1  1.000000    -5.805163553    11.730642184    38.136987564 # Li
    226      1   1  1.000000    11.610322447     1.675806654     9.534250230 # Li
    227      1   1  1.000000    11.610322447     1.675806654    23.835618897 # Li
    228      1   1  1.000000    11.610322447     1.675806654    38.136987564 # Li
    229      1   1  1.000000     8.707741447     6.703224419     9.534250230 # Li
    230      1   1  1.000000     8.707741447     6.703224419    23.835618897 # Li
    231      1   1  1.000000     8.707741447     6.703224419    38.136987564 # Li
    232      1   1  1.000000     5.805160447    11.730642184     9.534250230 # Li
    233      1   1  1.000000     5.805160447    11.730642184    23.835618897 # Li
    234      1   1  1.000000     5.805160447    11.730642184    38.136987564 # Li
    235      1   1  1.000000    23.220646447     1.675806654     9.534250230 # Li
    236      1   1  1.000000    23.220646447     1.675806654    23.835618897 # Li
    237      1   1  1.000000    23.220646447     1.675806654    38.136987564 # Li
    238      1   1  1.000000    20.318065447     6.703224419     9.534250230 # Li
    239      1   1  1.000000    20.318065447     6.703224419    23.835618897 # Li
    240      1   1  1.000000    20.318065447     6.703224419    38.136987564 # Li
    241      1   1  1.000000    17.415484447    11.730642184     9.534250230 # Li
    242      1   1  1.000000    17.415484447    11.730642184    23.835618897 # Li
    243      1   1  1.000000    17.415484447    11.730642184    38.136987564 # Li
    244      1   1  1.000000    -1.451292047     4.189515627     9.534250230 # Li
    245      1   1  1.000000    -1.451292047     4.189515627    23.835618897 # Li
    246      1   1  1.000000    -1.451292047     4.189515627    38.136987564 # Li
    247      1   1  1.000000    -4.353873047     9.216933392     9.534250230 # Li
    248      1   1  1.000000    -4.353873047     9.216933392    23.835618897 # Li
    249      1   1  1.000000    -4.353873047     9.216933392    38.136987564 # Li
    250      1   1  1.000000    -7.256454047    14.244351157     9.534250230 # Li
    251      1   1  1.000000    -7.256454047    14.244351157    23.835618897 # Li
    252      1   1  1.000000    -7.256454047    14.244351157    38.136987564 # Li
    253      1   1  1.000000    10.159031953     4.189515627     9.534250230 # Li
    254      1   1  1.000000    10.159031953     4.189515627    23.835618897 # Li
    255      1   1  1.000000    10.159031953     4.189515627    38.136987564 # Li
    256      1   1  1.000000     7.256450953     9.216933392     9.534250230 # Li
    257      1   1  1.000000     7.256450953     9.216933392    23.835618897 # Li
    258      1   1  1.000000     7.256450953     9.216933392    38.136987564 # Li
    259      1   1  1.000000     4.353869953    14.244351157     9.534250230 # Li
    260      1   1  1.000000     4.353869953    14.244351157    23.835618897 # Li
    261      1   1  1.000000     4.353869953    14.244351157    38.136987564 # Li
    262      1   1  1.000000    21.769355953     4.189515627     9.534250230 # Li
    263      1   1  1.000000    21.769355953     4.189515627    23.835618897 # Li
    264      1   1  1.000000    21.769355953     4.189515627    38.136987564 # Li
    265      1   1  1.000000    18.866774953     9.216933392     9.534250230 # Li
    266      1   1  1.000000    18.866774953     9.216933392    23.835618897 # Li
    267      1   1  1.000000    18.866774953     9.216933392    38.136987564 # Li
    268      1   1  1.000000    15.964193953    14.244351157     9.534250230 # Li
    269      1   1  1.000000    15.964193953    14.244351157    23.835618897 # Li
    270      1   1  1.000000    15.964193953    14.244351157    38.136987564 # Li
    271      1   1  1.000000     2.902579575     1.675806654     9.534250230 # Li
    272      1   1  1.000000     2.902579575     1.675806654    23.835618897 # Li
    273      1   1  1.000000     2.902579575     1.675806654    38.136987564 # Li
    274      1   1  1.000000    -0.000001425     6.703224419     9.534250230 # Li
    275      1   1  1.000000    -0.000001425     6.703224419    23.835618897 # Li
    276      1   1  1.000000    -0.000001425     6.703224419    38.136987564 # Li
    277      1   1  1.000000    -2.902582425    11.730642184     9.534250230 # Li
    278      1   1  1.000000    -2.902582425    11.730642184    23.835618897 # Li
    279      1   1  1.000000    -2.902582425    11.730642184    38.136987564 # Li
    280      1   1  1.000000    14.512903575     1.675806654     9.534250230 # Li
    281      1   1  1.000000    14.512903575     1.675806654    23.835618897 # Li
    282      1   1  1.000000    14.512903575     1.675806654    38.136987564 # Li
    283      1   1  1.000000    11.610322575     6.703224419     9.534250230 # Li
    284      1   1  1.000000    11.610322575     6.703224419    23.835618897 # Li
    285      1   1  1.000000    11.610322575     6.703224419    38.136987564 # Li
    286      1   1  1.000000     8.707741575    11.730642184     9.534250230 # Li
    287      1   1  1.000000     8.707741575    11.730642184    23.835618897 # Li
    288      1   1  1.000000     8.707741575    11.730642184    38.136987564 # Li
    289      1   1  1.000000    26.123227575     1.675806654     9.534250230 # Li
    290      1   1  1.000000    26.123227575     1.675806654    23.835618897 # Li
    291      1   1  1.000000    26.123227575     1.675806654    38.136987564 # Li
    292      1   1  1.000000    23.220646575     6.703224419     9.534250230 # Li
    293      1   1  1.000000    23.220646575     6.703224419    23.835618897 # Li
    294      1   1  1.000000    23.220646575     6.703224419    38.136987564 # Li
    295      1   1  1.000000    20.318065575    11.730642184     9.534250230 # Li
    296      1   1  1.000000    20.318065575    11.730642184    23.835618897 # Li
    297      1   1  1.000000    20.318065575    11.730642184    38.136987564 # Li
    298      1   1  1.000000     1.451288953     4.189515627     9.534250230 # Li
    299      1   1  1.000000     1.451288953     4.189515627    23.835618897 # Li
    300      1   1  1.000000     1.451288953     4.189515627    38.136987564 # Li
    301      1   1  1.000000    -1.451292047     9.216933392     9.534250230 # Li
    302      1   1  1.000000    -1.451292047     9.216933392    23.835618897 # Li
    303      1   1  1.000000    -1.451292047     9.216933392    38.136987564 # Li
    304      1   1  1.000000    -4.353873047    14.244351157     9.534250230 # Li
    305      1   1  1.000000    -4.353873047    14.244351157    23.835618897 # Li
    306      1   1  1.000000    -4.353873047    14.244351157    38.136987564 # Li
    307      1   1  1.000000    13.061612953     4.189515627     9.534250230 # Li
    308      1   1  1.000000    13.061612953     4.189515627    23.835618897 # Li
    309      1   1  1.000000    13.061612953     4.189515627    38.136987564 # Li
    310      1   1  1.000000    10.159031953     9.216933392     9.534250230 # Li
    311      1   1  1.000000    10.159031953     9.216933392    23.835618897 # Li
    312      1   1  1.000000    10.159031953     9.216933392    38.136987564 # Li
    313      1   1  1.000000     7.256450953    14.244351157     9.534250230 # Li
    314      1   1  1.000000     7.256450953    14.244351157    23.835618897 # Li
    315      1   1  1.000000     7.256450953    14.244351157    38.136987564 # Li
    316      1   1  1.000000    24.671936953     4.189515627     9.534250230 # Li
    317      1   1  1.000000    24.671936953     4.189515627    23.835618897 # Li
    318      1   1  1.000000    24.671936953     4.189515627    38.136987564 # Li
    319      1   1  1.000000    21.769355953     9.216933392     9.534250230 # Li
    320      1   1  1.000000    21.769355953     9.216933392    23.835618897 # Li
    321      1   1  1.000000    21.769355953     9.216933392    38.136987564 # Li
    322      1   1  1.000000    18.866774953    14.244351157     9.534250230 # Li
    323      1   1  1.000000    18.866774953    14.244351157    23.835618897 # Li
    324      1   1  1.000000    18.866774953    14.244351157    38.136987564 # Li
    325      1   1  1.000000     5.805160575     1.675806654     9.534250230 # Li
    326      1   1  1.000000     5.805160575     1.675806654    23.835618897 # Li
    327      1   1  1.000000     5.805160575     1.675806654    38.136987564 # Li
    328      1   1  1.000000     2.902579575     6.703224419     9.534250230 # Li
    329      1   1  1.000000     2.902579575     6.703224419    23.835618897 # Li
    330      1   1  1.000000     2.902579575     6.703224419    38.136987564 # Li
    331      1   1  1.000000    -0.000001425    11.730642184     9.534250230 # Li
    332      1   1  1.000000    -0.000001425    11.730642184    23.835618897 # Li
    333      1   1  1.000000    -0.000001425    11.730642184    38.136987564 # Li
    334      1   1  1.000000    17.415484575     1.675806654     9.534250230 # Li
    335      1   1  1.000000    17.415484575     1.675806654    23.835618897 # Li
    336      1   1  1.000000    17.415484575     1.675806654    38.136987564 # Li
    337      1   1  1.000000    14.512903575     6.703224419     9.534250230 # Li
    338      1   1  1.000000    14.512903575     6.703224419    23.835618897 # Li
    339      1   1  1.000000    14.512903575     6.703224419    38.136987564 # Li
    340      1   1  1.000000    11.610322575    11.730642184     9.534250230 # Li
    341      1   1  1.000000    11.610322575    11.730642184    23.835618897 # Li
    342      1   1  1.000000    11.610322575    11.730642184    38.136987564 # Li
    343      1   1  1.000000    29.025808575     1.675806654     9.534250230 # Li
    344      1   1  1.000000    29.025808575     1.675806654    23.835618897 # Li
    345      1   1  1.000000    29.025808575     1.675806654    38.136987564 # Li
    346      1   1  1.000000    26.123227575     6.703224419     9.534250230 # Li
    347      1   1  1.000000    26.123227575     6.703224419    23.835618897 # Li
    348      1   1  1.000000    26.123227575     6.703224419    38.136987564 # Li
    349      1   1  1.000000    23.220646575    11.730642184     9.534250230 # Li
    350      1   1  1.000000    23.220646575    11.730642184    23.835618897 # Li
    351      1   1  1.000000    23.220646575    11.730642184    38.136987564 # Li
    352      1   1  1.000000     4.353869953     4.189515627     9.534250230 # Li
    353      1   1  1.000000     4.353869953     4.189515627    23.835618897 # Li
    354      1   1  1.000000     4.353869953     4.189515627    38.136987564 # Li
    355      1   1  1.000000     1.451288953     9.216933392     9.534250230 # Li
    356      1   1  1.000000     1.451288953     9.216933392    23.835618897 # Li
    357      1   1  1.000000     1.451288953     9.216933392    38.136987564 # Li
    358      1   1  1.000000    -1.451292047    14.244351157     9.534250230 # Li
    359      1   1  1.000000    -1.451292047    14.244351157    23.835618897 # Li